M 0.00000 0 (0.00, 0.00, 0.00), (100.00, 200.00), 3000.00
M 0.00000 1 (0.00, 0.00, 0.00), (250.00, 200.00), 3000.00
M 0.00000 2 (0.00, 0.00, 0.00), (50.00, 700.00), 3000.00
s 0.032821055 _1_ RTR  --- 0 message 32 [0 0 0 0] ------- [1:255 -1:255 32 0] 
s 0.033056055 _1_ MAC  --- 0 message 90 [0 ffffffff 1 800] ------- [1:255 -1:255 32 0] 
r 0.033776197 _0_ MAC  --- 0 message 32 [0 ffffffff 1 800] ------- [1:255 -1:255 32 0] 
r 0.033776320 _2_ MAC  --- 0 message 32 [0 ffffffff 1 800] ------- [1:255 -1:255 32 0] 
r 0.033801197 _0_ RTR  --- 0 message 32 [0 ffffffff 1 800] ------- [1:255 -1:255 32 0] 
r 0.033801320 _2_ RTR  --- 0 message 32 [0 ffffffff 1 800] ------- [1:255 -1:255 32 0] 
s 0.178591360 _2_ RTR  --- 1 message 32 [0 0 0 0] ------- [2:255 -1:255 32 0] 
s 0.178926360 _2_ MAC  --- 1 message 90 [0 ffffffff 2 800] ------- [2:255 -1:255 32 0] 
s 0.500000000 _0_ AGT  --- 2 cbr 1000 [0 0 0 0] ------- [0:1 1:0 32 0] [0] 0 0
r 0.500000000 _0_ RTR  --- 2 cbr 1000 [0 0 0 0] ------- [0:1 1:0 32 0] [0] 0 0
s 0.500000000 _0_ RTR  --- 2 cbr 1020 [0 0 0 0] ------- [0:1 1:0 32 1] [0] 0 0
M 0.50000 0 (100.00, 200.00, 0.00), (400.00, 150.00), 3000.00
s 0.500095000 _0_ MAC  --- 0 ARP 86 [0 ffffffff 0 806] ------- [REQUEST 0/0 0/1]
r 0.500783499 _1_ MAC  --- 0 ARP 28 [0 ffffffff 0 806] ------- [REQUEST 0/0 0/1]
s 0.500998499 _1_ MAC  --- 0 RTS 44 [52e 0 1 0] 
r 0.501350989 _0_ MAC  --- 0 RTS 44 [52e 0 1 0] 
s 0.501360989 _0_ MAC  --- 0 CTS 38 [3f4 1 0 0] 
r 0.501665476 _1_ MAC  --- 0 CTS 38 [3f4 1 0 0] 
s 0.501675476 _1_ MAC  --- 0 ARP 86 [13a 0 1 806] ------- [REPLY 1/1 0/0]
r 0.502363959 _0_ MAC  --- 0 ARP 28 [13a 0 1 806] ------- [REPLY 1/1 0/0]
s 0.502373959 _0_ MAC  --- 0 ACK 38 [0 1 0 0] 
r 0.502678436 _1_ MAC  --- 0 ACK 38 [0 1 0 0] 
s 0.503107959 _0_ MAC  --- 0 RTS 44 [242e 1 0 0] 
r 0.503460429 _1_ MAC  --- 0 RTS 44 [242e 1 0 0] 
s 0.503470429 _1_ MAC  --- 0 CTS 38 [22f4 0 0 0] 
r 0.503774894 _0_ MAC  --- 0 CTS 38 [22f4 0 0 0] 
s 0.503784894 _0_ MAC  --- 2 cbr 1078 [13a 1 0 800] ------- [0:1 1:0 32 1] [0] 0 0
r 0.512409357 _1_ MAC  --- 2 cbr 1020 [13a 1 0 800] ------- [0:1 1:0 32 1] [0] 1 0
s 0.512419357 _1_ MAC  --- 0 ACK 38 [0 0 0 0] 
r 0.512434357 _1_ AGT  --- 2 cbr 1020 [13a 1 0 800] ------- [0:1 1:0 32 1] [0] 1 0
r 0.512723735 _0_ MAC  --- 0 ACK 38 [0 0 0 0] 
s 0.515000000 _0_ AGT  --- 3 cbr 1000 [0 0 0 0] ------- [0:1 1:0 32 0] [1] 0 0
r 0.515000000 _0_ RTR  --- 3 cbr 1000 [0 0 0 0] ------- [0:1 1:0 32 0] [1] 0 0
s 0.515000000 _0_ RTR  --- 3 cbr 1020 [0 0 0 0] ------- [0:1 1:0 32 1] [1] 0 0
s 0.515235000 _0_ MAC  --- 0 RTS 44 [242e 1 0 0] 
r 0.515587351 _1_ MAC  --- 0 RTS 44 [242e 1 0 0] 
s 0.515597351 _1_ MAC  --- 0 CTS 38 [22f4 0 0 0] 
r 0.515901698 _0_ MAC  --- 0 CTS 38 [22f4 0 0 0] 
s 0.515911698 _0_ MAC  --- 3 cbr 1078 [13a 1 0 800] ------- [0:1 1:0 32 1] [1] 0 0
r 0.524536042 _1_ MAC  --- 3 cbr 1020 [13a 1 0 800] ------- [0:1 1:0 32 1] [1] 1 0
s 0.524546042 _1_ MAC  --- 0 ACK 38 [0 0 0 0] 
r 0.524561042 _1_ AGT  --- 3 cbr 1020 [13a 1 0 800] ------- [0:1 1:0 32 1] [1] 1 0
r 0.524850303 _0_ MAC  --- 0 ACK 38 [0 0 0 0] 
s 0.530000000 _0_ AGT  --- 4 cbr 1000 [0 0 0 0] ------- [0:1 1:0 32 0] [2] 0 0
r 0.530000000 _0_ RTR  --- 4 cbr 1000 [0 0 0 0] ------- [0:1 1:0 32 0] [2] 0 0
s 0.530000000 _0_ RTR  --- 4 cbr 1020 [0 0 0 0] ------- [0:1 1:0 32 1] [2] 0 0
s 0.530415000 _0_ MAC  --- 0 RTS 44 [242e 1 0 0] 
r 0.530767206 _1_ MAC  --- 0 RTS 44 [242e 1 0 0] 
s 0.530777206 _1_ MAC  --- 0 CTS 38 [22f4 0 0 0] 
r 0.531081409 _0_ MAC  --- 0 CTS 38 [22f4 0 0 0] 
s 0.531091409 _0_ MAC  --- 4 cbr 1078 [13a 1 0 800] ------- [0:1 1:0 32 1] [2] 0 0
r 0.539715609 _1_ MAC  --- 4 cbr 1020 [13a 1 0 800] ------- [0:1 1:0 32 1] [2] 1 0
s 0.539725609 _1_ MAC  --- 0 ACK 38 [0 0 0 0] 
r 0.539740609 _1_ AGT  --- 4 cbr 1020 [13a 1 0 800] ------- [0:1 1:0 32 1] [2] 1 0
r 0.540029735 _0_ MAC  --- 0 ACK 38 [0 0 0 0] 
s 0.545000000 _0_ AGT  --- 5 cbr 1000 [0 0 0 0] ------- [0:1 1:0 32 0] [3] 0 0
r 0.545000000 _0_ RTR  --- 5 cbr 1000 [0 0 0 0] ------- [0:1 1:0 32 0] [3] 0 0
s 0.545000000 _0_ RTR  --- 5 cbr 1020 [0 0 0 0] ------- [0:1 1:0 32 1] [3] 0 0
s 0.545275000 _0_ MAC  --- 0 RTS 44 [242e 1 0 0] 
r 0.545627092 _1_ MAC  --- 0 RTS 44 [242e 1 0 0] 
s 0.545637092 _1_ MAC  --- 0 CTS 38 [22f4 0 0 0] 
r 0.545941182 _0_ MAC  --- 0 CTS 38 [22f4 0 0 0] 
s 0.545951182 _0_ MAC  --- 5 cbr 1078 [13a 1 0 800] ------- [0:1 1:0 32 1] [3] 0 0
r 0.554575271 _1_ MAC  --- 5 cbr 1020 [13a 1 0 800] ------- [0:1 1:0 32 1] [3] 1 0
s 0.554585271 _1_ MAC  --- 0 ACK 38 [0 0 0 0] 
r 0.554600271 _1_ AGT  --- 5 cbr 1020 [13a 1 0 800] ------- [0:1 1:0 32 1] [3] 1 0
r 0.554889368 _0_ MAC  --- 0 ACK 38 [0 0 0 0] 
s 0.560000000 _0_ AGT  --- 6 cbr 1000 [0 0 0 0] ------- [0:1 1:0 32 0] [4] 0 0
r 0.560000000 _0_ RTR  --- 6 cbr 1000 [0 0 0 0] ------- [0:1 1:0 32 0] [4] 0 0
s 0.560000000 _0_ RTR  --- 6 cbr 1020 [0 0 0 0] ------- [0:1 1:0 32 1] [4] 0 0
s 0.560095000 _0_ MAC  --- 0 RTS 44 [242e 1 0 0] 
r 0.560447136 _1_ MAC  --- 0 RTS 44 [242e 1 0 0] 
s 0.560457136 _1_ MAC  --- 0 CTS 38 [22f4 0 0 0] 
r 0.560761274 _0_ MAC  --- 0 CTS 38 [22f4 0 0 0] 
s 0.560771274 _0_ MAC  --- 6 cbr 1078 [13a 1 0 800] ------- [0:1 1:0 32 1] [4] 0 0
r 0.569395415 _1_ MAC  --- 6 cbr 1020 [13a 1 0 800] ------- [0:1 1:0 32 1] [4] 1 0
s 0.569405415 _1_ MAC  --- 0 ACK 38 [0 0 0 0] 
r 0.569420415 _1_ AGT  --- 6 cbr 1020 [13a 1 0 800] ------- [0:1 1:0 32 1] [4] 1 0
r 0.569709632 _0_ MAC  --- 0 ACK 38 [0 0 0 0] 
s 0.575000000 _0_ AGT  --- 7 cbr 1000 [0 0 0 0] ------- [0:1 1:0 32 0] [5] 0 0
r 0.575000000 _0_ RTR  --- 7 cbr 1000 [0 0 0 0] ------- [0:1 1:0 32 0] [5] 0 0
s 0.575000000 _0_ RTR  --- 7 cbr 1020 [0 0 0 0] ------- [0:1 1:0 32 1] [5] 0 0
s 0.575515000 _0_ MAC  --- 0 RTS 44 [242e 1 0 0] 
r 0.575867275 _1_ MAC  --- 0 RTS 44 [242e 1 0 0] 
s 0.575877275 _1_ MAC  --- 0 CTS 38 [22f4 0 0 0] 
r 0.576181553 _0_ MAC  --- 0 CTS 38 [22f4 0 0 0] 
s 0.576191553 _0_ MAC  --- 7 cbr 1078 [13a 1 0 800] ------- [0:1 1:0 32 1] [5] 0 0
r 0.584815834 _1_ MAC  --- 7 cbr 1020 [13a 1 0 800] ------- [0:1 1:0 32 1] [5] 1 0
s 0.584825834 _1_ MAC  --- 0 ACK 38 [0 0 0 0] 
r 0.584840834 _1_ AGT  --- 7 cbr 1020 [13a 1 0 800] ------- [0:1 1:0 32 1] [5] 1 0
r 0.585130198 _0_ MAC  --- 0 ACK 38 [0 0 0 0] 
s 0.590000000 _0_ AGT  --- 8 cbr 1000 [0 0 0 0] ------- [0:1 1:0 32 0] [6] 0 0
r 0.590000000 _0_ RTR  --- 8 cbr 1000 [0 0 0 0] ------- [0:1 1:0 32 0] [6] 0 0
s 0.590000000 _0_ RTR  --- 8 cbr 1020 [0 0 0 0] ------- [0:1 1:0 32 1] [6] 0 0
s 0.590655000 _0_ MAC  --- 0 RTS 44 [242e 1 0 0] 
r 0.591007421 _1_ MAC  --- 0 RTS 44 [242e 1 0 0] 
s 0.591017421 _1_ MAC  --- 0 CTS 38 [22f4 0 0 0] 
r 0.591321846 _0_ MAC  --- 0 CTS 38 [22f4 0 0 0] 
s 0.591331846 _0_ MAC  --- 8 cbr 1078 [13a 1 0 800] ------- [0:1 1:0 32 1] [6] 0 0
r 0.599956275 _1_ MAC  --- 8 cbr 1020 [13a 1 0 800] ------- [0:1 1:0 32 1] [6] 1 0
s 0.599966275 _1_ MAC  --- 0 ACK 38 [0 0 0 0] 
r 0.599981275 _1_ AGT  --- 8 cbr 1020 [13a 1 0 800] ------- [0:1 1:0 32 1] [6] 1 0
r 0.600270788 _0_ MAC  --- 0 ACK 38 [0 0 0 0] 
s 0.605000000 _0_ AGT  --- 9 cbr 1000 [0 0 0 0] ------- [0:1 1:0 32 0] [7] 0 0
r 0.605000000 _0_ RTR  --- 9 cbr 1000 [0 0 0 0] ------- [0:1 1:0 32 0] [7] 0 0
s 0.605000000 _0_ RTR  --- 9 cbr 1020 [0 0 0 0] ------- [0:1 1:0 32 1] [7] 0 0
s 0.605615000 _0_ MAC  --- 0 RTS 44 [242e 1 0 0] 
r 0.605967527 _1_ MAC  --- 0 RTS 44 [242e 1 0 0] 
s 0.605977527 _1_ MAC  --- 0 CTS 38 [22f4 0 0 0] 
r 0.606282054 _0_ MAC  --- 0 CTS 38 [22f4 0 0 0] 
s 0.606292054 _0_ MAC  --- 9 cbr 1078 [13a 1 0 800] ------- [0:1 1:0 32 1] [7] 0 0
r 0.614916581 _1_ MAC  --- 9 cbr 1020 [13a 1 0 800] ------- [0:1 1:0 32 1] [7] 1 0
s 0.614926581 _1_ MAC  --- 0 ACK 38 [0 0 0 0] 
r 0.614941581 _1_ AGT  --- 9 cbr 1020 [13a 1 0 800] ------- [0:1 1:0 32 1] [7] 1 0
r 0.615231108 _0_ MAC  --- 0 ACK 38 [0 0 0 0] 
s 0.620000000 _0_ AGT  --- 10 cbr 1000 [0 0 0 0] ------- [0:1 1:0 32 0] [8] 0 0
r 0.620000000 _0_ RTR  --- 10 cbr 1000 [0 0 0 0] ------- [0:1 1:0 32 0] [8] 0 0
s 0.620000000 _0_ RTR  --- 10 cbr 1020 [0 0 0 0] ------- [0:1 1:0 32 1] [8] 0 0
s 0.620115000 _0_ MAC  --- 0 RTS 44 [242e 1 0 0] 
r 0.620467527 _1_ MAC  --- 0 RTS 44 [242e 1 0 0] 
s 0.620477527 _1_ MAC  --- 0 CTS 38 [22f4 0 0 0] 
r 0.620782054 _0_ MAC  --- 0 CTS 38 [22f4 0 0 0] 
s 0.620792054 _0_ MAC  --- 10 cbr 1078 [13a 1 0 800] ------- [0:1 1:0 32 1] [8] 0 0
r 0.629416581 _1_ MAC  --- 10 cbr 1020 [13a 1 0 800] ------- [0:1 1:0 32 1] [8] 1 0
s 0.629426581 _1_ MAC  --- 0 ACK 38 [0 0 0 0] 
r 0.629441581 _1_ AGT  --- 10 cbr 1020 [13a 1 0 800] ------- [0:1 1:0 32 1] [8] 1 0
r 0.629731108 _0_ MAC  --- 0 ACK 38 [0 0 0 0] 
s 0.635000000 _0_ AGT  --- 11 cbr 1000 [0 0 0 0] ------- [0:1 1:0 32 0] [9] 0 0
r 0.635000000 _0_ RTR  --- 11 cbr 1000 [0 0 0 0] ------- [0:1 1:0 32 0] [9] 0 0
s 0.635000000 _0_ RTR  --- 11 cbr 1020 [0 0 0 0] ------- [0:1 1:0 32 1] [9] 0 0
s 0.635435000 _0_ MAC  --- 0 RTS 44 [242e 1 0 0] 
r 0.635787527 _1_ MAC  --- 0 RTS 44 [242e 1 0 0] 
s 0.635797527 _1_ MAC  --- 0 CTS 38 [22f4 0 0 0] 
r 0.636102054 _0_ MAC  --- 0 CTS 38 [22f4 0 0 0] 
s 0.636112054 _0_ MAC  --- 11 cbr 1078 [13a 1 0 800] ------- [0:1 1:0 32 1] [9] 0 0
r 0.644736581 _1_ MAC  --- 11 cbr 1020 [13a 1 0 800] ------- [0:1 1:0 32 1] [9] 1 0
s 0.644746581 _1_ MAC  --- 0 ACK 38 [0 0 0 0] 
r 0.644761581 _1_ AGT  --- 11 cbr 1020 [13a 1 0 800] ------- [0:1 1:0 32 1] [9] 1 0
r 0.645051108 _0_ MAC  --- 0 ACK 38 [0 0 0 0] 
s 0.650000000 _0_ AGT  --- 12 cbr 1000 [0 0 0 0] ------- [0:1 1:0 32 0] [10] 0 0
r 0.650000000 _0_ RTR  --- 12 cbr 1000 [0 0 0 0] ------- [0:1 1:0 32 0] [10] 0 0
s 0.650000000 _0_ RTR  --- 12 cbr 1020 [0 0 0 0] ------- [0:1 1:0 32 1] [10] 0 0
s 0.650155000 _0_ MAC  --- 0 RTS 44 [242e 1 0 0] 
r 0.650507527 _1_ MAC  --- 0 RTS 44 [242e 1 0 0] 
s 0.650517527 _1_ MAC  --- 0 CTS 38 [22f4 0 0 0] 
r 0.650822054 _0_ MAC  --- 0 CTS 38 [22f4 0 0 0] 
s 0.650832054 _0_ MAC  --- 12 cbr 1078 [13a 1 0 800] ------- [0:1 1:0 32 1] [10] 0 0
r 0.659456581 _1_ MAC  --- 12 cbr 1020 [13a 1 0 800] ------- [0:1 1:0 32 1] [10] 1 0
s 0.659466581 _1_ MAC  --- 0 ACK 38 [0 0 0 0] 
r 0.659481581 _1_ AGT  --- 12 cbr 1020 [13a 1 0 800] ------- [0:1 1:0 32 1] [10] 1 0
r 0.659771108 _0_ MAC  --- 0 ACK 38 [0 0 0 0] 
s 0.665000000 _0_ AGT  --- 13 cbr 1000 [0 0 0 0] ------- [0:1 1:0 32 0] [11] 0 0
r 0.665000000 _0_ RTR  --- 13 cbr 1000 [0 0 0 0] ------- [0:1 1:0 32 0] [11] 0 0
s 0.665000000 _0_ RTR  --- 13 cbr 1020 [0 0 0 0] ------- [0:1 1:0 32 1] [11] 0 0
s 0.665275000 _0_ MAC  --- 0 RTS 44 [242e 1 0 0] 
r 0.665627527 _1_ MAC  --- 0 RTS 44 [242e 1 0 0] 
s 0.665637527 _1_ MAC  --- 0 CTS 38 [22f4 0 0 0] 
r 0.665942054 _0_ MAC  --- 0 CTS 38 [22f4 0 0 0] 
s 0.665952054 _0_ MAC  --- 13 cbr 1078 [13a 1 0 800] ------- [0:1 1:0 32 1] [11] 0 0
r 0.674576581 _1_ MAC  --- 13 cbr 1020 [13a 1 0 800] ------- [0:1 1:0 32 1] [11] 1 0
s 0.674586581 _1_ MAC  --- 0 ACK 38 [0 0 0 0] 
r 0.674601581 _1_ AGT  --- 13 cbr 1020 [13a 1 0 800] ------- [0:1 1:0 32 1] [11] 1 0
r 0.674891108 _0_ MAC  --- 0 ACK 38 [0 0 0 0] 
s 0.680000000 _0_ AGT  --- 14 cbr 1000 [0 0 0 0] ------- [0:1 1:0 32 0] [12] 0 0
r 0.680000000 _0_ RTR  --- 14 cbr 1000 [0 0 0 0] ------- [0:1 1:0 32 0] [12] 0 0
s 0.680000000 _0_ RTR  --- 14 cbr 1020 [0 0 0 0] ------- [0:1 1:0 32 1] [12] 0 0
s 0.680595000 _0_ MAC  --- 0 RTS 44 [242e 1 0 0] 
r 0.680947527 _1_ MAC  --- 0 RTS 44 [242e 1 0 0] 
s 0.680957527 _1_ MAC  --- 0 CTS 38 [22f4 0 0 0] 
r 0.681262054 _0_ MAC  --- 0 CTS 38 [22f4 0 0 0] 
s 0.681272054 _0_ MAC  --- 14 cbr 1078 [13a 1 0 800] ------- [0:1 1:0 32 1] [12] 0 0
r 0.689896581 _1_ MAC  --- 14 cbr 1020 [13a 1 0 800] ------- [0:1 1:0 32 1] [12] 1 0
s 0.689906581 _1_ MAC  --- 0 ACK 38 [0 0 0 0] 
r 0.689921581 _1_ AGT  --- 14 cbr 1020 [13a 1 0 800] ------- [0:1 1:0 32 1] [12] 1 0
r 0.690211108 _0_ MAC  --- 0 ACK 38 [0 0 0 0] 
s 0.695000000 _0_ AGT  --- 15 cbr 1000 [0 0 0 0] ------- [0:1 1:0 32 0] [13] 0 0
r 0.695000000 _0_ RTR  --- 15 cbr 1000 [0 0 0 0] ------- [0:1 1:0 32 0] [13] 0 0
s 0.695000000 _0_ RTR  --- 15 cbr 1020 [0 0 0 0] ------- [0:1 1:0 32 1] [13] 0 0
s 0.695275000 _0_ MAC  --- 0 RTS 44 [242e 1 0 0] 
r 0.695627527 _1_ MAC  --- 0 RTS 44 [242e 1 0 0] 
s 0.695637527 _1_ MAC  --- 0 CTS 38 [22f4 0 0 0] 
r 0.695942054 _0_ MAC  --- 0 CTS 38 [22f4 0 0 0] 
s 0.695952054 _0_ MAC  --- 15 cbr 1078 [13a 1 0 800] ------- [0:1 1:0 32 1] [13] 0 0
r 0.704576581 _1_ MAC  --- 15 cbr 1020 [13a 1 0 800] ------- [0:1 1:0 32 1] [13] 1 0
s 0.704586581 _1_ MAC  --- 0 ACK 38 [0 0 0 0] 
r 0.704601581 _1_ AGT  --- 15 cbr 1020 [13a 1 0 800] ------- [0:1 1:0 32 1] [13] 1 0
r 0.704891108 _0_ MAC  --- 0 ACK 38 [0 0 0 0] 
s 0.710000000 _0_ AGT  --- 16 cbr 1000 [0 0 0 0] ------- [0:1 1:0 32 0] [14] 0 0
r 0.710000000 _0_ RTR  --- 16 cbr 1000 [0 0 0 0] ------- [0:1 1:0 32 0] [14] 0 0
s 0.710000000 _0_ RTR  --- 16 cbr 1020 [0 0 0 0] ------- [0:1 1:0 32 1] [14] 0 0
s 0.710135000 _0_ MAC  --- 0 RTS 44 [242e 1 0 0] 
r 0.710487527 _1_ MAC  --- 0 RTS 44 [242e 1 0 0] 
s 0.710497527 _1_ MAC  --- 0 CTS 38 [22f4 0 0 0] 
r 0.710802054 _0_ MAC  --- 0 CTS 38 [22f4 0 0 0] 
s 0.710812054 _0_ MAC  --- 16 cbr 1078 [13a 1 0 800] ------- [0:1 1:0 32 1] [14] 0 0
r 0.719436581 _1_ MAC  --- 16 cbr 1020 [13a 1 0 800] ------- [0:1 1:0 32 1] [14] 1 0
s 0.719446581 _1_ MAC  --- 0 ACK 38 [0 0 0 0] 
r 0.719461581 _1_ AGT  --- 16 cbr 1020 [13a 1 0 800] ------- [0:1 1:0 32 1] [14] 1 0
r 0.719751108 _0_ MAC  --- 0 ACK 38 [0 0 0 0] 
s 0.725000000 _0_ AGT  --- 17 cbr 1000 [0 0 0 0] ------- [0:1 1:0 32 0] [15] 0 0
r 0.725000000 _0_ RTR  --- 17 cbr 1000 [0 0 0 0] ------- [0:1 1:0 32 0] [15] 0 0
s 0.725000000 _0_ RTR  --- 17 cbr 1020 [0 0 0 0] ------- [0:1 1:0 32 1] [15] 0 0
s 0.725415000 _0_ MAC  --- 0 RTS 44 [242e 1 0 0] 
r 0.725767527 _1_ MAC  --- 0 RTS 44 [242e 1 0 0] 
s 0.725777527 _1_ MAC  --- 0 CTS 38 [22f4 0 0 0] 
r 0.726082054 _0_ MAC  --- 0 CTS 38 [22f4 0 0 0] 
s 0.726092054 _0_ MAC  --- 17 cbr 1078 [13a 1 0 800] ------- [0:1 1:0 32 1] [15] 0 0
r 0.734716581 _1_ MAC  --- 17 cbr 1020 [13a 1 0 800] ------- [0:1 1:0 32 1] [15] 1 0
s 0.734726581 _1_ MAC  --- 0 ACK 38 [0 0 0 0] 
r 0.734741581 _1_ AGT  --- 17 cbr 1020 [13a 1 0 800] ------- [0:1 1:0 32 1] [15] 1 0
r 0.735031108 _0_ MAC  --- 0 ACK 38 [0 0 0 0] 
s 0.740000000 _0_ AGT  --- 18 cbr 1000 [0 0 0 0] ------- [0:1 1:0 32 0] [16] 0 0
r 0.740000000 _0_ RTR  --- 18 cbr 1000 [0 0 0 0] ------- [0:1 1:0 32 0] [16] 0 0
s 0.740000000 _0_ RTR  --- 18 cbr 1020 [0 0 0 0] ------- [0:1 1:0 32 1] [16] 0 0
s 0.740355000 _0_ MAC  --- 0 RTS 44 [242e 1 0 0] 
r 0.740707527 _1_ MAC  --- 0 RTS 44 [242e 1 0 0] 
s 0.740717527 _1_ MAC  --- 0 CTS 38 [22f4 0 0 0] 
r 0.741022054 _0_ MAC  --- 0 CTS 38 [22f4 0 0 0] 
s 0.741032054 _0_ MAC  --- 18 cbr 1078 [13a 1 0 800] ------- [0:1 1:0 32 1] [16] 0 0
r 0.749656581 _1_ MAC  --- 18 cbr 1020 [13a 1 0 800] ------- [0:1 1:0 32 1] [16] 1 0
s 0.749666581 _1_ MAC  --- 0 ACK 38 [0 0 0 0] 
r 0.749681581 _1_ AGT  --- 18 cbr 1020 [13a 1 0 800] ------- [0:1 1:0 32 1] [16] 1 0
r 0.749971108 _0_ MAC  --- 0 ACK 38 [0 0 0 0] 
s 0.755000000 _0_ AGT  --- 19 cbr 1000 [0 0 0 0] ------- [0:1 1:0 32 0] [17] 0 0
r 0.755000000 _0_ RTR  --- 19 cbr 1000 [0 0 0 0] ------- [0:1 1:0 32 0] [17] 0 0
s 0.755000000 _0_ RTR  --- 19 cbr 1020 [0 0 0 0] ------- [0:1 1:0 32 1] [17] 0 0
s 0.755355000 _0_ MAC  --- 0 RTS 44 [242e 1 0 0] 
r 0.755707527 _1_ MAC  --- 0 RTS 44 [242e 1 0 0] 
s 0.755717527 _1_ MAC  --- 0 CTS 38 [22f4 0 0 0] 
r 0.756022054 _0_ MAC  --- 0 CTS 38 [22f4 0 0 0] 
s 0.756032054 _0_ MAC  --- 19 cbr 1078 [13a 1 0 800] ------- [0:1 1:0 32 1] [17] 0 0
r 0.764656581 _1_ MAC  --- 19 cbr 1020 [13a 1 0 800] ------- [0:1 1:0 32 1] [17] 1 0
s 0.764666581 _1_ MAC  --- 0 ACK 38 [0 0 0 0] 
r 0.764681581 _1_ AGT  --- 19 cbr 1020 [13a 1 0 800] ------- [0:1 1:0 32 1] [17] 1 0
r 0.764971108 _0_ MAC  --- 0 ACK 38 [0 0 0 0] 
s 0.770000000 _0_ AGT  --- 20 cbr 1000 [0 0 0 0] ------- [0:1 1:0 32 0] [18] 0 0
r 0.770000000 _0_ RTR  --- 20 cbr 1000 [0 0 0 0] ------- [0:1 1:0 32 0] [18] 0 0
s 0.770000000 _0_ RTR  --- 20 cbr 1020 [0 0 0 0] ------- [0:1 1:0 32 1] [18] 0 0
s 0.770075000 _0_ MAC  --- 0 RTS 44 [242e 1 0 0] 
r 0.770427527 _1_ MAC  --- 0 RTS 44 [242e 1 0 0] 
s 0.770437527 _1_ MAC  --- 0 CTS 38 [22f4 0 0 0] 
r 0.770742054 _0_ MAC  --- 0 CTS 38 [22f4 0 0 0] 
s 0.770752054 _0_ MAC  --- 20 cbr 1078 [13a 1 0 800] ------- [0:1 1:0 32 1] [18] 0 0
r 0.779376581 _1_ MAC  --- 20 cbr 1020 [13a 1 0 800] ------- [0:1 1:0 32 1] [18] 1 0
s 0.779386581 _1_ MAC  --- 0 ACK 38 [0 0 0 0] 
r 0.779401581 _1_ AGT  --- 20 cbr 1020 [13a 1 0 800] ------- [0:1 1:0 32 1] [18] 1 0
r 0.779691108 _0_ MAC  --- 0 ACK 38 [0 0 0 0] 
s 0.785000000 _0_ AGT  --- 21 cbr 1000 [0 0 0 0] ------- [0:1 1:0 32 0] [19] 0 0
r 0.785000000 _0_ RTR  --- 21 cbr 1000 [0 0 0 0] ------- [0:1 1:0 32 0] [19] 0 0
s 0.785000000 _0_ RTR  --- 21 cbr 1020 [0 0 0 0] ------- [0:1 1:0 32 1] [19] 0 0
s 0.785395000 _0_ MAC  --- 0 RTS 44 [242e 1 0 0] 
r 0.785747527 _1_ MAC  --- 0 RTS 44 [242e 1 0 0] 
s 0.785757527 _1_ MAC  --- 0 CTS 38 [22f4 0 0 0] 
r 0.786062054 _0_ MAC  --- 0 CTS 38 [22f4 0 0 0] 
s 0.786072054 _0_ MAC  --- 21 cbr 1078 [13a 1 0 800] ------- [0:1 1:0 32 1] [19] 0 0
r 0.794696581 _1_ MAC  --- 21 cbr 1020 [13a 1 0 800] ------- [0:1 1:0 32 1] [19] 1 0
s 0.794706581 _1_ MAC  --- 0 ACK 38 [0 0 0 0] 
r 0.794721581 _1_ AGT  --- 21 cbr 1020 [13a 1 0 800] ------- [0:1 1:0 32 1] [19] 1 0
r 0.795011108 _0_ MAC  --- 0 ACK 38 [0 0 0 0] 
s 0.800000000 _0_ AGT  --- 22 cbr 1000 [0 0 0 0] ------- [0:1 1:0 32 0] [20] 0 0
r 0.800000000 _0_ RTR  --- 22 cbr 1000 [0 0 0 0] ------- [0:1 1:0 32 0] [20] 0 0
s 0.800000000 _0_ RTR  --- 22 cbr 1020 [0 0 0 0] ------- [0:1 1:0 32 1] [20] 0 0
s 0.800295000 _0_ MAC  --- 0 RTS 44 [242e 1 0 0] 
r 0.800647527 _1_ MAC  --- 0 RTS 44 [242e 1 0 0] 
s 0.800657527 _1_ MAC  --- 0 CTS 38 [22f4 0 0 0] 
r 0.800962054 _0_ MAC  --- 0 CTS 38 [22f4 0 0 0] 
s 0.800972054 _0_ MAC  --- 22 cbr 1078 [13a 1 0 800] ------- [0:1 1:0 32 1] [20] 0 0
r 0.809596581 _1_ MAC  --- 22 cbr 1020 [13a 1 0 800] ------- [0:1 1:0 32 1] [20] 1 0
s 0.809606581 _1_ MAC  --- 0 ACK 38 [0 0 0 0] 
r 0.809621581 _1_ AGT  --- 22 cbr 1020 [13a 1 0 800] ------- [0:1 1:0 32 1] [20] 1 0
r 0.809911108 _0_ MAC  --- 0 ACK 38 [0 0 0 0] 
s 0.815000000 _0_ AGT  --- 23 cbr 1000 [0 0 0 0] ------- [0:1 1:0 32 0] [21] 0 0
r 0.815000000 _0_ RTR  --- 23 cbr 1000 [0 0 0 0] ------- [0:1 1:0 32 0] [21] 0 0
s 0.815000000 _0_ RTR  --- 23 cbr 1020 [0 0 0 0] ------- [0:1 1:0 32 1] [21] 0 0
s 0.815375000 _0_ MAC  --- 0 RTS 44 [242e 1 0 0] 
r 0.815727527 _1_ MAC  --- 0 RTS 44 [242e 1 0 0] 
s 0.815737527 _1_ MAC  --- 0 CTS 38 [22f4 0 0 0] 
r 0.816042054 _0_ MAC  --- 0 CTS 38 [22f4 0 0 0] 
s 0.816052054 _0_ MAC  --- 23 cbr 1078 [13a 1 0 800] ------- [0:1 1:0 32 1] [21] 0 0
r 0.824676581 _1_ MAC  --- 23 cbr 1020 [13a 1 0 800] ------- [0:1 1:0 32 1] [21] 1 0
s 0.824686581 _1_ MAC  --- 0 ACK 38 [0 0 0 0] 
r 0.824701581 _1_ AGT  --- 23 cbr 1020 [13a 1 0 800] ------- [0:1 1:0 32 1] [21] 1 0
r 0.824991108 _0_ MAC  --- 0 ACK 38 [0 0 0 0] 
s 0.830000000 _0_ AGT  --- 24 cbr 1000 [0 0 0 0] ------- [0:1 1:0 32 0] [22] 0 0
r 0.830000000 _0_ RTR  --- 24 cbr 1000 [0 0 0 0] ------- [0:1 1:0 32 0] [22] 0 0
s 0.830000000 _0_ RTR  --- 24 cbr 1020 [0 0 0 0] ------- [0:1 1:0 32 1] [22] 0 0
s 0.830315000 _0_ MAC  --- 0 RTS 44 [242e 1 0 0] 
r 0.830667527 _1_ MAC  --- 0 RTS 44 [242e 1 0 0] 
s 0.830677527 _1_ MAC  --- 0 CTS 38 [22f4 0 0 0] 
r 0.830982054 _0_ MAC  --- 0 CTS 38 [22f4 0 0 0] 
s 0.830992054 _0_ MAC  --- 24 cbr 1078 [13a 1 0 800] ------- [0:1 1:0 32 1] [22] 0 0
r 0.839616581 _1_ MAC  --- 24 cbr 1020 [13a 1 0 800] ------- [0:1 1:0 32 1] [22] 1 0
s 0.839626581 _1_ MAC  --- 0 ACK 38 [0 0 0 0] 
r 0.839641581 _1_ AGT  --- 24 cbr 1020 [13a 1 0 800] ------- [0:1 1:0 32 1] [22] 1 0
r 0.839931108 _0_ MAC  --- 0 ACK 38 [0 0 0 0] 
s 0.845000000 _0_ AGT  --- 25 cbr 1000 [0 0 0 0] ------- [0:1 1:0 32 0] [23] 0 0
r 0.845000000 _0_ RTR  --- 25 cbr 1000 [0 0 0 0] ------- [0:1 1:0 32 0] [23] 0 0
s 0.845000000 _0_ RTR  --- 25 cbr 1020 [0 0 0 0] ------- [0:1 1:0 32 1] [23] 0 0
s 0.845355000 _0_ MAC  --- 0 RTS 44 [242e 1 0 0] 
r 0.845707527 _1_ MAC  --- 0 RTS 44 [242e 1 0 0] 
s 0.845717527 _1_ MAC  --- 0 CTS 38 [22f4 0 0 0] 
r 0.846022054 _0_ MAC  --- 0 CTS 38 [22f4 0 0 0] 
s 0.846032054 _0_ MAC  --- 25 cbr 1078 [13a 1 0 800] ------- [0:1 1:0 32 1] [23] 0 0
r 0.854656581 _1_ MAC  --- 25 cbr 1020 [13a 1 0 800] ------- [0:1 1:0 32 1] [23] 1 0
s 0.854666581 _1_ MAC  --- 0 ACK 38 [0 0 0 0] 
r 0.854681581 _1_ AGT  --- 25 cbr 1020 [13a 1 0 800] ------- [0:1 1:0 32 1] [23] 1 0
r 0.854971108 _0_ MAC  --- 0 ACK 38 [0 0 0 0] 
s 0.860000000 _0_ AGT  --- 26 cbr 1000 [0 0 0 0] ------- [0:1 1:0 32 0] [24] 0 0
r 0.860000000 _0_ RTR  --- 26 cbr 1000 [0 0 0 0] ------- [0:1 1:0 32 0] [24] 0 0
s 0.860000000 _0_ RTR  --- 26 cbr 1020 [0 0 0 0] ------- [0:1 1:0 32 1] [24] 0 0
s 0.860555000 _0_ MAC  --- 0 RTS 44 [242e 1 0 0] 
r 0.860907527 _1_ MAC  --- 0 RTS 44 [242e 1 0 0] 
s 0.860917527 _1_ MAC  --- 0 CTS 38 [22f4 0 0 0] 
r 0.861222054 _0_ MAC  --- 0 CTS 38 [22f4 0 0 0] 
s 0.861232054 _0_ MAC  --- 26 cbr 1078 [13a 1 0 800] ------- [0:1 1:0 32 1] [24] 0 0
r 0.869856581 _1_ MAC  --- 26 cbr 1020 [13a 1 0 800] ------- [0:1 1:0 32 1] [24] 1 0
s 0.869866581 _1_ MAC  --- 0 ACK 38 [0 0 0 0] 
r 0.869881581 _1_ AGT  --- 26 cbr 1020 [13a 1 0 800] ------- [0:1 1:0 32 1] [24] 1 0
r 0.870171108 _0_ MAC  --- 0 ACK 38 [0 0 0 0] 
s 0.875000000 _0_ AGT  --- 27 cbr 1000 [0 0 0 0] ------- [0:1 1:0 32 0] [25] 0 0
r 0.875000000 _0_ RTR  --- 27 cbr 1000 [0 0 0 0] ------- [0:1 1:0 32 0] [25] 0 0
s 0.875000000 _0_ RTR  --- 27 cbr 1020 [0 0 0 0] ------- [0:1 1:0 32 1] [25] 0 0
s 0.875195000 _0_ MAC  --- 0 RTS 44 [242e 1 0 0] 
r 0.875547527 _1_ MAC  --- 0 RTS 44 [242e 1 0 0] 
s 0.875557527 _1_ MAC  --- 0 CTS 38 [22f4 0 0 0] 
r 0.875862054 _0_ MAC  --- 0 CTS 38 [22f4 0 0 0] 
s 0.875872054 _0_ MAC  --- 27 cbr 1078 [13a 1 0 800] ------- [0:1 1:0 32 1] [25] 0 0
r 0.884496581 _1_ MAC  --- 27 cbr 1020 [13a 1 0 800] ------- [0:1 1:0 32 1] [25] 1 0
s 0.884506581 _1_ MAC  --- 0 ACK 38 [0 0 0 0] 
r 0.884521581 _1_ AGT  --- 27 cbr 1020 [13a 1 0 800] ------- [0:1 1:0 32 1] [25] 1 0
r 0.884811108 _0_ MAC  --- 0 ACK 38 [0 0 0 0] 
s 0.890000000 _0_ AGT  --- 28 cbr 1000 [0 0 0 0] ------- [0:1 1:0 32 0] [26] 0 0
r 0.890000000 _0_ RTR  --- 28 cbr 1000 [0 0 0 0] ------- [0:1 1:0 32 0] [26] 0 0
s 0.890000000 _0_ RTR  --- 28 cbr 1020 [0 0 0 0] ------- [0:1 1:0 32 1] [26] 0 0
s 0.890115000 _0_ MAC  --- 0 RTS 44 [242e 1 0 0] 
r 0.890467527 _1_ MAC  --- 0 RTS 44 [242e 1 0 0] 
s 0.890477527 _1_ MAC  --- 0 CTS 38 [22f4 0 0 0] 
r 0.890782054 _0_ MAC  --- 0 CTS 38 [22f4 0 0 0] 
s 0.890792054 _0_ MAC  --- 28 cbr 1078 [13a 1 0 800] ------- [0:1 1:0 32 1] [26] 0 0
r 0.899416581 _1_ MAC  --- 28 cbr 1020 [13a 1 0 800] ------- [0:1 1:0 32 1] [26] 1 0
s 0.899426581 _1_ MAC  --- 0 ACK 38 [0 0 0 0] 
r 0.899441581 _1_ AGT  --- 28 cbr 1020 [13a 1 0 800] ------- [0:1 1:0 32 1] [26] 1 0
r 0.899731108 _0_ MAC  --- 0 ACK 38 [0 0 0 0] 
s 0.905000000 _0_ AGT  --- 29 cbr 1000 [0 0 0 0] ------- [0:1 1:0 32 0] [27] 0 0
r 0.905000000 _0_ RTR  --- 29 cbr 1000 [0 0 0 0] ------- [0:1 1:0 32 0] [27] 0 0
s 0.905000000 _0_ RTR  --- 29 cbr 1020 [0 0 0 0] ------- [0:1 1:0 32 1] [27] 0 0
s 0.905195000 _0_ MAC  --- 0 RTS 44 [242e 1 0 0] 
r 0.905547527 _1_ MAC  --- 0 RTS 44 [242e 1 0 0] 
s 0.905557527 _1_ MAC  --- 0 CTS 38 [22f4 0 0 0] 
r 0.905862054 _0_ MAC  --- 0 CTS 38 [22f4 0 0 0] 
s 0.905872054 _0_ MAC  --- 29 cbr 1078 [13a 1 0 800] ------- [0:1 1:0 32 1] [27] 0 0
r 0.914496581 _1_ MAC  --- 29 cbr 1020 [13a 1 0 800] ------- [0:1 1:0 32 1] [27] 1 0
s 0.914506581 _1_ MAC  --- 0 ACK 38 [0 0 0 0] 
r 0.914521581 _1_ AGT  --- 29 cbr 1020 [13a 1 0 800] ------- [0:1 1:0 32 1] [27] 1 0
r 0.914811108 _0_ MAC  --- 0 ACK 38 [0 0 0 0] 
s 0.920000000 _0_ AGT  --- 30 cbr 1000 [0 0 0 0] ------- [0:1 1:0 32 0] [28] 0 0
r 0.920000000 _0_ RTR  --- 30 cbr 1000 [0 0 0 0] ------- [0:1 1:0 32 0] [28] 0 0
s 0.920000000 _0_ RTR  --- 30 cbr 1020 [0 0 0 0] ------- [0:1 1:0 32 1] [28] 0 0
s 0.920175000 _0_ MAC  --- 0 RTS 44 [242e 1 0 0] 
r 0.920527527 _1_ MAC  --- 0 RTS 44 [242e 1 0 0] 
s 0.920537527 _1_ MAC  --- 0 CTS 38 [22f4 0 0 0] 
r 0.920842054 _0_ MAC  --- 0 CTS 38 [22f4 0 0 0] 
s 0.920852054 _0_ MAC  --- 30 cbr 1078 [13a 1 0 800] ------- [0:1 1:0 32 1] [28] 0 0
r 0.929476581 _1_ MAC  --- 30 cbr 1020 [13a 1 0 800] ------- [0:1 1:0 32 1] [28] 1 0
s 0.929486581 _1_ MAC  --- 0 ACK 38 [0 0 0 0] 
r 0.929501581 _1_ AGT  --- 30 cbr 1020 [13a 1 0 800] ------- [0:1 1:0 32 1] [28] 1 0
r 0.929791108 _0_ MAC  --- 0 ACK 38 [0 0 0 0] 
s 0.935000000 _0_ AGT  --- 31 cbr 1000 [0 0 0 0] ------- [0:1 1:0 32 0] [29] 0 0
r 0.935000000 _0_ RTR  --- 31 cbr 1000 [0 0 0 0] ------- [0:1 1:0 32 0] [29] 0 0
s 0.935000000 _0_ RTR  --- 31 cbr 1020 [0 0 0 0] ------- [0:1 1:0 32 1] [29] 0 0
s 0.935335000 _0_ MAC  --- 0 RTS 44 [242e 1 0 0] 
r 0.935687527 _1_ MAC  --- 0 RTS 44 [242e 1 0 0] 
s 0.935697527 _1_ MAC  --- 0 CTS 38 [22f4 0 0 0] 
r 0.936002054 _0_ MAC  --- 0 CTS 38 [22f4 0 0 0] 
s 0.936012054 _0_ MAC  --- 31 cbr 1078 [13a 1 0 800] ------- [0:1 1:0 32 1] [29] 0 0
r 0.944636581 _1_ MAC  --- 31 cbr 1020 [13a 1 0 800] ------- [0:1 1:0 32 1] [29] 1 0
s 0.944646581 _1_ MAC  --- 0 ACK 38 [0 0 0 0] 
r 0.944661581 _1_ AGT  --- 31 cbr 1020 [13a 1 0 800] ------- [0:1 1:0 32 1] [29] 1 0
r 0.944951108 _0_ MAC  --- 0 ACK 38 [0 0 0 0] 
s 0.950000000 _0_ AGT  --- 32 cbr 1000 [0 0 0 0] ------- [0:1 1:0 32 0] [30] 0 0
r 0.950000000 _0_ RTR  --- 32 cbr 1000 [0 0 0 0] ------- [0:1 1:0 32 0] [30] 0 0
s 0.950000000 _0_ RTR  --- 32 cbr 1020 [0 0 0 0] ------- [0:1 1:0 32 1] [30] 0 0
s 0.950135000 _0_ MAC  --- 0 RTS 44 [242e 1 0 0] 
r 0.950487527 _1_ MAC  --- 0 RTS 44 [242e 1 0 0] 
s 0.950497527 _1_ MAC  --- 0 CTS 38 [22f4 0 0 0] 
r 0.950802054 _0_ MAC  --- 0 CTS 38 [22f4 0 0 0] 
s 0.950812054 _0_ MAC  --- 32 cbr 1078 [13a 1 0 800] ------- [0:1 1:0 32 1] [30] 0 0
r 0.959436581 _1_ MAC  --- 32 cbr 1020 [13a 1 0 800] ------- [0:1 1:0 32 1] [30] 1 0
s 0.959446581 _1_ MAC  --- 0 ACK 38 [0 0 0 0] 
r 0.959461581 _1_ AGT  --- 32 cbr 1020 [13a 1 0 800] ------- [0:1 1:0 32 1] [30] 1 0
r 0.959751108 _0_ MAC  --- 0 ACK 38 [0 0 0 0] 
s 0.965000000 _0_ AGT  --- 33 cbr 1000 [0 0 0 0] ------- [0:1 1:0 32 0] [31] 0 0
r 0.965000000 _0_ RTR  --- 33 cbr 1000 [0 0 0 0] ------- [0:1 1:0 32 0] [31] 0 0
s 0.965000000 _0_ RTR  --- 33 cbr 1020 [0 0 0 0] ------- [0:1 1:0 32 1] [31] 0 0
s 0.965675000 _0_ MAC  --- 0 RTS 44 [242e 1 0 0] 
r 0.966027527 _1_ MAC  --- 0 RTS 44 [242e 1 0 0] 
s 0.966037527 _1_ MAC  --- 0 CTS 38 [22f4 0 0 0] 
r 0.966342054 _0_ MAC  --- 0 CTS 38 [22f4 0 0 0] 
s 0.966352054 _0_ MAC  --- 33 cbr 1078 [13a 1 0 800] ------- [0:1 1:0 32 1] [31] 0 0
r 0.974976581 _1_ MAC  --- 33 cbr 1020 [13a 1 0 800] ------- [0:1 1:0 32 1] [31] 1 0
s 0.974986581 _1_ MAC  --- 0 ACK 38 [0 0 0 0] 
r 0.975001581 _1_ AGT  --- 33 cbr 1020 [13a 1 0 800] ------- [0:1 1:0 32 1] [31] 1 0
r 0.975291108 _0_ MAC  --- 0 ACK 38 [0 0 0 0] 
s 0.980000000 _0_ AGT  --- 34 cbr 1000 [0 0 0 0] ------- [0:1 1:0 32 0] [32] 0 0
r 0.980000000 _0_ RTR  --- 34 cbr 1000 [0 0 0 0] ------- [0:1 1:0 32 0] [32] 0 0
s 0.980000000 _0_ RTR  --- 34 cbr 1020 [0 0 0 0] ------- [0:1 1:0 32 1] [32] 0 0
s 0.980135000 _0_ MAC  --- 0 RTS 44 [242e 1 0 0] 
r 0.980487527 _1_ MAC  --- 0 RTS 44 [242e 1 0 0] 
s 0.980497527 _1_ MAC  --- 0 CTS 38 [22f4 0 0 0] 
r 0.980802054 _0_ MAC  --- 0 CTS 38 [22f4 0 0 0] 
s 0.980812054 _0_ MAC  --- 34 cbr 1078 [13a 1 0 800] ------- [0:1 1:0 32 1] [32] 0 0
r 0.989436581 _1_ MAC  --- 34 cbr 1020 [13a 1 0 800] ------- [0:1 1:0 32 1] [32] 1 0
s 0.989446581 _1_ MAC  --- 0 ACK 38 [0 0 0 0] 
r 0.989461581 _1_ AGT  --- 34 cbr 1020 [13a 1 0 800] ------- [0:1 1:0 32 1] [32] 1 0
r 0.989751108 _0_ MAC  --- 0 ACK 38 [0 0 0 0] 
s 0.995000000 _0_ AGT  --- 35 cbr 1000 [0 0 0 0] ------- [0:1 1:0 32 0] [33] 0 0
r 0.995000000 _0_ RTR  --- 35 cbr 1000 [0 0 0 0] ------- [0:1 1:0 32 0] [33] 0 0
s 0.995000000 _0_ RTR  --- 35 cbr 1020 [0 0 0 0] ------- [0:1 1:0 32 1] [33] 0 0
s 0.995195000 _0_ MAC  --- 0 RTS 44 [242e 1 0 0] 
r 0.995547527 _1_ MAC  --- 0 RTS 44 [242e 1 0 0] 
s 0.995557527 _1_ MAC  --- 0 CTS 38 [22f4 0 0 0] 
r 0.995862054 _0_ MAC  --- 0 CTS 38 [22f4 0 0 0] 
s 0.995872054 _0_ MAC  --- 35 cbr 1078 [13a 1 0 800] ------- [0:1 1:0 32 1] [33] 0 0
r 1.004496581 _1_ MAC  --- 35 cbr 1020 [13a 1 0 800] ------- [0:1 1:0 32 1] [33] 1 0
s 1.004506581 _1_ MAC  --- 0 ACK 38 [0 0 0 0] 
r 1.004521581 _1_ AGT  --- 35 cbr 1020 [13a 1 0 800] ------- [0:1 1:0 32 1] [33] 1 0
r 1.004811108 _0_ MAC  --- 0 ACK 38 [0 0 0 0] 
s 1.010000000 _0_ AGT  --- 36 cbr 1000 [0 0 0 0] ------- [0:1 1:0 32 0] [34] 0 0
r 1.010000000 _0_ RTR  --- 36 cbr 1000 [0 0 0 0] ------- [0:1 1:0 32 0] [34] 0 0
s 1.010000000 _0_ RTR  --- 36 cbr 1020 [0 0 0 0] ------- [0:1 1:0 32 1] [34] 0 0
s 1.010515000 _0_ MAC  --- 0 RTS 44 [242e 1 0 0] 
r 1.010867527 _1_ MAC  --- 0 RTS 44 [242e 1 0 0] 
s 1.010877527 _1_ MAC  --- 0 CTS 38 [22f4 0 0 0] 
r 1.011182054 _0_ MAC  --- 0 CTS 38 [22f4 0 0 0] 
s 1.011192054 _0_ MAC  --- 36 cbr 1078 [13a 1 0 800] ------- [0:1 1:0 32 1] [34] 0 0
r 1.019816581 _1_ MAC  --- 36 cbr 1020 [13a 1 0 800] ------- [0:1 1:0 32 1] [34] 1 0
s 1.019826581 _1_ MAC  --- 0 ACK 38 [0 0 0 0] 
r 1.019841581 _1_ AGT  --- 36 cbr 1020 [13a 1 0 800] ------- [0:1 1:0 32 1] [34] 1 0
r 1.020131108 _0_ MAC  --- 0 ACK 38 [0 0 0 0] 
s 1.025000000 _0_ AGT  --- 37 cbr 1000 [0 0 0 0] ------- [0:1 1:0 32 0] [35] 0 0
r 1.025000000 _0_ RTR  --- 37 cbr 1000 [0 0 0 0] ------- [0:1 1:0 32 0] [35] 0 0
s 1.025000000 _0_ RTR  --- 37 cbr 1020 [0 0 0 0] ------- [0:1 1:0 32 1] [35] 0 0
s 1.025375000 _0_ MAC  --- 0 RTS 44 [242e 1 0 0] 
r 1.025727527 _1_ MAC  --- 0 RTS 44 [242e 1 0 0] 
s 1.025737527 _1_ MAC  --- 0 CTS 38 [22f4 0 0 0] 
r 1.026042054 _0_ MAC  --- 0 CTS 38 [22f4 0 0 0] 
s 1.026052054 _0_ MAC  --- 37 cbr 1078 [13a 1 0 800] ------- [0:1 1:0 32 1] [35] 0 0
r 1.034676581 _1_ MAC  --- 37 cbr 1020 [13a 1 0 800] ------- [0:1 1:0 32 1] [35] 1 0
s 1.034686581 _1_ MAC  --- 0 ACK 38 [0 0 0 0] 
r 1.034701581 _1_ AGT  --- 37 cbr 1020 [13a 1 0 800] ------- [0:1 1:0 32 1] [35] 1 0
r 1.034991108 _0_ MAC  --- 0 ACK 38 [0 0 0 0] 