n -t 0 -s 0 -S DLABEL -l "Sender(0)" -L ""
n -t 0 -s 1 -S DLABEL -l "Receiver(0)" -L ""
n -t 0 -s 2 -S DLABEL -l "Dummy" -L ""
n -t * -s 0  -x 0 -y 0 -Z 0 -z 30+i*100  -v circle -c black
n -t * -s 1  -x 0 -y 0 -Z 0 -z 30+i*100  -v circle -c black
n -t * -s 2  -x 0 -y 0 -Z 0 -z 30+i*100  -v circle -c black
V -t * -v 1.0a5 -a 0
W -t * -x 800 -y 800
A -t * -n 1 -p 0 -o 0xffffffff -c 31 -a 1
A -t * -h 1 -m 2147483647 -s 0
c -t * -i 4 -n brown
c -t * -i 0 -n blue
c -t * -i 5 -n tan
c -t * -i 1 -n red
c -t * -i 6 -n gold
c -t * -i 2 -n chocolate
c -t * -i 7 -n black
c -t * -i 3 -n red
n -t 0 -s 0 -S COLOR -c red -o 0 -i red -I 0
n -t 0 -s 1 -S COLOR -c green -o green -i green -I green
n -t 0 -s 2 -S COLOR -c blue -o blue -i blue -I blue
n -t 0.000000 -s 0 -x 0.000000 -y 0.000000 -U 1341.640786 -V 2683.281573 -T 0.074536
n -t 0.000000 -s 1 -x 0.000000 -y 0.000000 -U 2342.606428 -V 1874.085143 -T 0.106719
n -t 0 -s 2 -S DLABEL -l "Error Free" -L "Dummy"
n -t 0.000000 -s 2 -x 0.000000 -y 0.000000 -U 213.741150 -V 2992.376099 -T 0.233928
+ -t 0.032821055 -s 1 -d -1 -p message -e 32 -c 2 -a 0 -i 0 -k RTR 
- -t 0.032821055 -s 1 -d -1 -p message -e 32 -c 2 -a 0 -i 0 -k RTR
h -t 0.032821055 -s 1 -d -1 -p message -e 32 -c 2 -a 0 -i 0 -k RTR
+ -t 0.033056055 -s 1 -d -1 -p message -e 90 -c 2 -a 0 -i 0 -k MAC 
- -t 0.033056055 -s 1 -d -1 -p message -e 90 -c 2 -a 0 -i 0 -k MAC
h -t 0.033056055 -s 1 -d -1 -p message -e 90 -c 2 -a 0 -i 0 -k MAC
r -t 0.033776197 -s 0 -d -1 -p message -e 32 -c 2 -a 0 -i 0 -k MAC
r -t 0.033776320 -s 2 -d -1 -p message -e 32 -c 2 -a 0 -i 0 -k MAC
r -t 0.033801197 -s 0 -d -1 -p message -e 32 -c 2 -a 0 -i 0 -k RTR
r -t 0.033801320 -s 2 -d -1 -p message -e 32 -c 2 -a 0 -i 0 -k RTR
+ -t 0.178591360 -s 2 -d -1 -p message -e 32 -c 2 -a 0 -i 1 -k RTR 
- -t 0.178591360 -s 2 -d -1 -p message -e 32 -c 2 -a 0 -i 1 -k RTR
h -t 0.178591360 -s 2 -d -1 -p message -e 32 -c 2 -a 0 -i 1 -k RTR
+ -t 0.178926360 -s 2 -d -1 -p message -e 90 -c 2 -a 0 -i 1 -k MAC 
- -t 0.178926360 -s 2 -d -1 -p message -e 90 -c 2 -a 0 -i 1 -k MAC
h -t 0.178926360 -s 2 -d -1 -p message -e 90 -c 2 -a 0 -i 1 -k MAC
+ -t 0.500000000 -s 0 -d -1 -p cbr -e 1000 -c 2 -a 0 -i 2 -k AGT 
- -t 0.500000000 -s 0 -d -1 -p cbr -e 1000 -c 2 -a 0 -i 2 -k AGT
h -t 0.500000000 -s 0 -d -1 -p cbr -e 1000 -c 2 -a 0 -i 2 -k AGT
+ -t 0.500000000 -s 0 -d 1 -p cbr -e 1020 -c 2 -a 0 -i 2 -k RTR 
- -t 0.500000000 -s 0 -d 1 -p cbr -e 1020 -c 2 -a 0 -i 2 -k RTR
h -t 0.500000000 -s 0 -d 1 -p cbr -e 1020 -c 2 -a 0 -i 2 -k RTR
n -t 0.500000 -s 0 -x 100.000000 -y 200.000000 -U 2959.181771 -V -493.196962 -T 0.101379
+ -t 0.500095000 -s 0 -d -1 -p ARP -e 86 -c 2 -a 0 -i 0 -k MAC 
- -t 0.500095000 -s 0 -d -1 -p ARP -e 86 -c 2 -a 0 -i 0 -k MAC
h -t 0.500095000 -s 0 -d -1 -p ARP -e 86 -c 2 -a 0 -i 0 -k MAC
r -t 0.500783499 -s 1 -d -1 -p ARP -e 28 -c 2 -a 0 -i 0 -k MAC
+ -t 0.500998499 -s 1 -d -1 -p RTS -e 44 -c 2 -a 0 -i 0 -k MAC 
- -t 0.500998499 -s 1 -d -1 -p RTS -e 44 -c 2 -a 0 -i 0 -k MAC
h -t 0.500998499 -s 1 -d -1 -p RTS -e 44 -c 2 -a 0 -i 0 -k MAC
r -t 0.501350989 -s 0 -d -1 -p RTS -e 44 -c 2 -a 0 -i 0 -k MAC
+ -t 0.501360989 -s 0 -d -1 -p CTS -e 38 -c 2 -a 0 -i 0 -k MAC 
- -t 0.501360989 -s 0 -d -1 -p CTS -e 38 -c 2 -a 0 -i 0 -k MAC
h -t 0.501360989 -s 0 -d -1 -p CTS -e 38 -c 2 -a 0 -i 0 -k MAC
r -t 0.501665476 -s 1 -d -1 -p CTS -e 38 -c 2 -a 0 -i 0 -k MAC
+ -t 0.501675476 -s 1 -d -1 -p ARP -e 86 -c 2 -a 0 -i 0 -k MAC 
- -t 0.501675476 -s 1 -d -1 -p ARP -e 86 -c 2 -a 0 -i 0 -k MAC
h -t 0.501675476 -s 1 -d -1 -p ARP -e 86 -c 2 -a 0 -i 0 -k MAC
r -t 0.502363959 -s 0 -d -1 -p ARP -e 28 -c 2 -a 0 -i 0 -k MAC
+ -t 0.502373959 -s 0 -d -1 -p ACK -e 38 -c 2 -a 0 -i 0 -k MAC 
- -t 0.502373959 -s 0 -d -1 -p ACK -e 38 -c 2 -a 0 -i 0 -k MAC
h -t 0.502373959 -s 0 -d -1 -p ACK -e 38 -c 2 -a 0 -i 0 -k MAC
r -t 0.502678436 -s 1 -d -1 -p ACK -e 38 -c 2 -a 0 -i 0 -k MAC
+ -t 0.503107959 -s 0 -d -1 -p RTS -e 44 -c 2 -a 0 -i 0 -k MAC 
- -t 0.503107959 -s 0 -d -1 -p RTS -e 44 -c 2 -a 0 -i 0 -k MAC
h -t 0.503107959 -s 0 -d -1 -p RTS -e 44 -c 2 -a 0 -i 0 -k MAC
r -t 0.503460429 -s 1 -d -1 -p RTS -e 44 -c 2 -a 0 -i 0 -k MAC
+ -t 0.503470429 -s 1 -d -1 -p CTS -e 38 -c 2 -a 0 -i 0 -k MAC 
- -t 0.503470429 -s 1 -d -1 -p CTS -e 38 -c 2 -a 0 -i 0 -k MAC
h -t 0.503470429 -s 1 -d -1 -p CTS -e 38 -c 2 -a 0 -i 0 -k MAC
r -t 0.503774894 -s 0 -d -1 -p CTS -e 38 -c 2 -a 0 -i 0 -k MAC
+ -t 0.503784894 -s 0 -d 1 -p cbr -e 1078 -c 2 -a 0 -i 2 -k MAC 
- -t 0.503784894 -s 0 -d 1 -p cbr -e 1078 -c 2 -a 0 -i 2 -k MAC
h -t 0.503784894 -s 0 -d 1 -p cbr -e 1078 -c 2 -a 0 -i 2 -k MAC
r -t 0.512409357 -s 1 -d 1 -p cbr -e 1020 -c 2 -a 0 -i 2 -k MAC
+ -t 0.512419357 -s 1 -d -1 -p ACK -e 38 -c 2 -a 0 -i 0 -k MAC 
- -t 0.512419357 -s 1 -d -1 -p ACK -e 38 -c 2 -a 0 -i 0 -k MAC
h -t 0.512419357 -s 1 -d -1 -p ACK -e 38 -c 2 -a 0 -i 0 -k MAC
r -t 0.512434357 -s 1 -d 1 -p cbr -e 1020 -c 2 -a 0 -i 2 -k AGT
r -t 0.512723735 -s 0 -d -1 -p ACK -e 38 -c 2 -a 0 -i 0 -k MAC
+ -t 0.515000000 -s 0 -d -1 -p cbr -e 1000 -c 2 -a 0 -i 3 -k AGT 
- -t 0.515000000 -s 0 -d -1 -p cbr -e 1000 -c 2 -a 0 -i 3 -k AGT
h -t 0.515000000 -s 0 -d -1 -p cbr -e 1000 -c 2 -a 0 -i 3 -k AGT
+ -t 0.515000000 -s 0 -d 1 -p cbr -e 1020 -c 2 -a 0 -i 3 -k RTR 
- -t 0.515000000 -s 0 -d 1 -p cbr -e 1020 -c 2 -a 0 -i 3 -k RTR
h -t 0.515000000 -s 0 -d 1 -p cbr -e 1020 -c 2 -a 0 -i 3 -k RTR
+ -t 0.515235000 -s 0 -d -1 -p RTS -e 44 -c 2 -a 0 -i 0 -k MAC 
- -t 0.515235000 -s 0 -d -1 -p RTS -e 44 -c 2 -a 0 -i 0 -k MAC
h -t 0.515235000 -s 0 -d -1 -p RTS -e 44 -c 2 -a 0 -i 0 -k MAC
r -t 0.515587351 -s 1 -d -1 -p RTS -e 44 -c 2 -a 0 -i 0 -k MAC
+ -t 0.515597351 -s 1 -d -1 -p CTS -e 38 -c 2 -a 0 -i 0 -k MAC 
- -t 0.515597351 -s 1 -d -1 -p CTS -e 38 -c 2 -a 0 -i 0 -k MAC
h -t 0.515597351 -s 1 -d -1 -p CTS -e 38 -c 2 -a 0 -i 0 -k MAC
r -t 0.515901698 -s 0 -d -1 -p CTS -e 38 -c 2 -a 0 -i 0 -k MAC
+ -t 0.515911698 -s 0 -d 1 -p cbr -e 1078 -c 2 -a 0 -i 3 -k MAC 
- -t 0.515911698 -s 0 -d 1 -p cbr -e 1078 -c 2 -a 0 -i 3 -k MAC
h -t 0.515911698 -s 0 -d 1 -p cbr -e 1078 -c 2 -a 0 -i 3 -k MAC
r -t 0.524536042 -s 1 -d 1 -p cbr -e 1020 -c 2 -a 0 -i 3 -k MAC
+ -t 0.524546042 -s 1 -d -1 -p ACK -e 38 -c 2 -a 0 -i 0 -k MAC 
- -t 0.524546042 -s 1 -d -1 -p ACK -e 38 -c 2 -a 0 -i 0 -k MAC
h -t 0.524546042 -s 1 -d -1 -p ACK -e 38 -c 2 -a 0 -i 0 -k MAC
r -t 0.524561042 -s 1 -d 1 -p cbr -e 1020 -c 2 -a 0 -i 3 -k AGT
r -t 0.524850303 -s 0 -d -1 -p ACK -e 38 -c 2 -a 0 -i 0 -k MAC
+ -t 0.530000000 -s 0 -d -1 -p cbr -e 1000 -c 2 -a 0 -i 4 -k AGT 
- -t 0.530000000 -s 0 -d -1 -p cbr -e 1000 -c 2 -a 0 -i 4 -k AGT
h -t 0.530000000 -s 0 -d -1 -p cbr -e 1000 -c 2 -a 0 -i 4 -k AGT
+ -t 0.530000000 -s 0 -d 1 -p cbr -e 1020 -c 2 -a 0 -i 4 -k RTR 
- -t 0.530000000 -s 0 -d 1 -p cbr -e 1020 -c 2 -a 0 -i 4 -k RTR
h -t 0.530000000 -s 0 -d 1 -p cbr -e 1020 -c 2 -a 0 -i 4 -k RTR
+ -t 0.530415000 -s 0 -d -1 -p RTS -e 44 -c 2 -a 0 -i 0 -k MAC 
- -t 0.530415000 -s 0 -d -1 -p RTS -e 44 -c 2 -a 0 -i 0 -k MAC
h -t 0.530415000 -s 0 -d -1 -p RTS -e 44 -c 2 -a 0 -i 0 -k MAC
r -t 0.530767206 -s 1 -d -1 -p RTS -e 44 -c 2 -a 0 -i 0 -k MAC
+ -t 0.530777206 -s 1 -d -1 -p CTS -e 38 -c 2 -a 0 -i 0 -k MAC 
- -t 0.530777206 -s 1 -d -1 -p CTS -e 38 -c 2 -a 0 -i 0 -k MAC
h -t 0.530777206 -s 1 -d -1 -p CTS -e 38 -c 2 -a 0 -i 0 -k MAC
r -t 0.531081409 -s 0 -d -1 -p CTS -e 38 -c 2 -a 0 -i 0 -k MAC
+ -t 0.531091409 -s 0 -d 1 -p cbr -e 1078 -c 2 -a 0 -i 4 -k MAC 
- -t 0.531091409 -s 0 -d 1 -p cbr -e 1078 -c 2 -a 0 -i 4 -k MAC
h -t 0.531091409 -s 0 -d 1 -p cbr -e 1078 -c 2 -a 0 -i 4 -k MAC
r -t 0.539715609 -s 1 -d 1 -p cbr -e 1020 -c 2 -a 0 -i 4 -k MAC
+ -t 0.539725609 -s 1 -d -1 -p ACK -e 38 -c 2 -a 0 -i 0 -k MAC 
- -t 0.539725609 -s 1 -d -1 -p ACK -e 38 -c 2 -a 0 -i 0 -k MAC
h -t 0.539725609 -s 1 -d -1 -p ACK -e 38 -c 2 -a 0 -i 0 -k MAC
r -t 0.539740609 -s 1 -d 1 -p cbr -e 1020 -c 2 -a 0 -i 4 -k AGT
r -t 0.540029735 -s 0 -d -1 -p ACK -e 38 -c 2 -a 0 -i 0 -k MAC
+ -t 0.545000000 -s 0 -d -1 -p cbr -e 1000 -c 2 -a 0 -i 5 -k AGT 
- -t 0.545000000 -s 0 -d -1 -p cbr -e 1000 -c 2 -a 0 -i 5 -k AGT
h -t 0.545000000 -s 0 -d -1 -p cbr -e 1000 -c 2 -a 0 -i 5 -k AGT
+ -t 0.545000000 -s 0 -d 1 -p cbr -e 1020 -c 2 -a 0 -i 5 -k RTR 
- -t 0.545000000 -s 0 -d 1 -p cbr -e 1020 -c 2 -a 0 -i 5 -k RTR
h -t 0.545000000 -s 0 -d 1 -p cbr -e 1020 -c 2 -a 0 -i 5 -k RTR
+ -t 0.545275000 -s 0 -d -1 -p RTS -e 44 -c 2 -a 0 -i 0 -k MAC 
- -t 0.545275000 -s 0 -d -1 -p RTS -e 44 -c 2 -a 0 -i 0 -k MAC
h -t 0.545275000 -s 0 -d -1 -p RTS -e 44 -c 2 -a 0 -i 0 -k MAC
r -t 0.545627092 -s 1 -d -1 -p RTS -e 44 -c 2 -a 0 -i 0 -k MAC
+ -t 0.545637092 -s 1 -d -1 -p CTS -e 38 -c 2 -a 0 -i 0 -k MAC 
- -t 0.545637092 -s 1 -d -1 -p CTS -e 38 -c 2 -a 0 -i 0 -k MAC
h -t 0.545637092 -s 1 -d -1 -p CTS -e 38 -c 2 -a 0 -i 0 -k MAC
r -t 0.545941182 -s 0 -d -1 -p CTS -e 38 -c 2 -a 0 -i 0 -k MAC
+ -t 0.545951182 -s 0 -d 1 -p cbr -e 1078 -c 2 -a 0 -i 5 -k MAC 
- -t 0.545951182 -s 0 -d 1 -p cbr -e 1078 -c 2 -a 0 -i 5 -k MAC
h -t 0.545951182 -s 0 -d 1 -p cbr -e 1078 -c 2 -a 0 -i 5 -k MAC
r -t 0.554575271 -s 1 -d 1 -p cbr -e 1020 -c 2 -a 0 -i 5 -k MAC
+ -t 0.554585271 -s 1 -d -1 -p ACK -e 38 -c 2 -a 0 -i 0 -k MAC 
- -t 0.554585271 -s 1 -d -1 -p ACK -e 38 -c 2 -a 0 -i 0 -k MAC
h -t 0.554585271 -s 1 -d -1 -p ACK -e 38 -c 2 -a 0 -i 0 -k MAC
r -t 0.554600271 -s 1 -d 1 -p cbr -e 1020 -c 2 -a 0 -i 5 -k AGT
r -t 0.554889368 -s 0 -d -1 -p ACK -e 38 -c 2 -a 0 -i 0 -k MAC
+ -t 0.560000000 -s 0 -d -1 -p cbr -e 1000 -c 2 -a 0 -i 6 -k AGT 
- -t 0.560000000 -s 0 -d -1 -p cbr -e 1000 -c 2 -a 0 -i 6 -k AGT
h -t 0.560000000 -s 0 -d -1 -p cbr -e 1000 -c 2 -a 0 -i 6 -k AGT
+ -t 0.560000000 -s 0 -d 1 -p cbr -e 1020 -c 2 -a 0 -i 6 -k RTR 
- -t 0.560000000 -s 0 -d 1 -p cbr -e 1020 -c 2 -a 0 -i 6 -k RTR
h -t 0.560000000 -s 0 -d 1 -p cbr -e 1020 -c 2 -a 0 -i 6 -k RTR
+ -t 0.560095000 -s 0 -d -1 -p RTS -e 44 -c 2 -a 0 -i 0 -k MAC 
- -t 0.560095000 -s 0 -d -1 -p RTS -e 44 -c 2 -a 0 -i 0 -k MAC
h -t 0.560095000 -s 0 -d -1 -p RTS -e 44 -c 2 -a 0 -i 0 -k MAC
r -t 0.560447136 -s 1 -d -1 -p RTS -e 44 -c 2 -a 0 -i 0 -k MAC
+ -t 0.560457136 -s 1 -d -1 -p CTS -e 38 -c 2 -a 0 -i 0 -k MAC 
- -t 0.560457136 -s 1 -d -1 -p CTS -e 38 -c 2 -a 0 -i 0 -k MAC
h -t 0.560457136 -s 1 -d -1 -p CTS -e 38 -c 2 -a 0 -i 0 -k MAC
r -t 0.560761274 -s 0 -d -1 -p CTS -e 38 -c 2 -a 0 -i 0 -k MAC
+ -t 0.560771274 -s 0 -d 1 -p cbr -e 1078 -c 2 -a 0 -i 6 -k MAC 
- -t 0.560771274 -s 0 -d 1 -p cbr -e 1078 -c 2 -a 0 -i 6 -k MAC
h -t 0.560771274 -s 0 -d 1 -p cbr -e 1078 -c 2 -a 0 -i 6 -k MAC
r -t 0.569395415 -s 1 -d 1 -p cbr -e 1020 -c 2 -a 0 -i 6 -k MAC
+ -t 0.569405415 -s 1 -d -1 -p ACK -e 38 -c 2 -a 0 -i 0 -k MAC 
- -t 0.569405415 -s 1 -d -1 -p ACK -e 38 -c 2 -a 0 -i 0 -k MAC
h -t 0.569405415 -s 1 -d -1 -p ACK -e 38 -c 2 -a 0 -i 0 -k MAC
r -t 0.569420415 -s 1 -d 1 -p cbr -e 1020 -c 2 -a 0 -i 6 -k AGT
r -t 0.569709632 -s 0 -d -1 -p ACK -e 38 -c 2 -a 0 -i 0 -k MAC
+ -t 0.575000000 -s 0 -d -1 -p cbr -e 1000 -c 2 -a 0 -i 7 -k AGT 
- -t 0.575000000 -s 0 -d -1 -p cbr -e 1000 -c 2 -a 0 -i 7 -k AGT
h -t 0.575000000 -s 0 -d -1 -p cbr -e 1000 -c 2 -a 0 -i 7 -k AGT
+ -t 0.575000000 -s 0 -d 1 -p cbr -e 1020 -c 2 -a 0 -i 7 -k RTR 
- -t 0.575000000 -s 0 -d 1 -p cbr -e 1020 -c 2 -a 0 -i 7 -k RTR
h -t 0.575000000 -s 0 -d 1 -p cbr -e 1020 -c 2 -a 0 -i 7 -k RTR
+ -t 0.575515000 -s 0 -d -1 -p RTS -e 44 -c 2 -a 0 -i 0 -k MAC 
- -t 0.575515000 -s 0 -d -1 -p RTS -e 44 -c 2 -a 0 -i 0 -k MAC
h -t 0.575515000 -s 0 -d -1 -p RTS -e 44 -c 2 -a 0 -i 0 -k MAC
r -t 0.575867275 -s 1 -d -1 -p RTS -e 44 -c 2 -a 0 -i 0 -k MAC
+ -t 0.575877275 -s 1 -d -1 -p CTS -e 38 -c 2 -a 0 -i 0 -k MAC 
- -t 0.575877275 -s 1 -d -1 -p CTS -e 38 -c 2 -a 0 -i 0 -k MAC
h -t 0.575877275 -s 1 -d -1 -p CTS -e 38 -c 2 -a 0 -i 0 -k MAC
r -t 0.576181553 -s 0 -d -1 -p CTS -e 38 -c 2 -a 0 -i 0 -k MAC
+ -t 0.576191553 -s 0 -d 1 -p cbr -e 1078 -c 2 -a 0 -i 7 -k MAC 
- -t 0.576191553 -s 0 -d 1 -p cbr -e 1078 -c 2 -a 0 -i 7 -k MAC
h -t 0.576191553 -s 0 -d 1 -p cbr -e 1078 -c 2 -a 0 -i 7 -k MAC
r -t 0.584815834 -s 1 -d 1 -p cbr -e 1020 -c 2 -a 0 -i 7 -k MAC
+ -t 0.584825834 -s 1 -d -1 -p ACK -e 38 -c 2 -a 0 -i 0 -k MAC 
- -t 0.584825834 -s 1 -d -1 -p ACK -e 38 -c 2 -a 0 -i 0 -k MAC
h -t 0.584825834 -s 1 -d -1 -p ACK -e 38 -c 2 -a 0 -i 0 -k MAC
r -t 0.584840834 -s 1 -d 1 -p cbr -e 1020 -c 2 -a 0 -i 7 -k AGT
r -t 0.585130198 -s 0 -d -1 -p ACK -e 38 -c 2 -a 0 -i 0 -k MAC
+ -t 0.590000000 -s 0 -d -1 -p cbr -e 1000 -c 2 -a 0 -i 8 -k AGT 
- -t 0.590000000 -s 0 -d -1 -p cbr -e 1000 -c 2 -a 0 -i 8 -k AGT
h -t 0.590000000 -s 0 -d -1 -p cbr -e 1000 -c 2 -a 0 -i 8 -k AGT
+ -t 0.590000000 -s 0 -d 1 -p cbr -e 1020 -c 2 -a 0 -i 8 -k RTR 
- -t 0.590000000 -s 0 -d 1 -p cbr -e 1020 -c 2 -a 0 -i 8 -k RTR
h -t 0.590000000 -s 0 -d 1 -p cbr -e 1020 -c 2 -a 0 -i 8 -k RTR
+ -t 0.590655000 -s 0 -d -1 -p RTS -e 44 -c 2 -a 0 -i 0 -k MAC 
- -t 0.590655000 -s 0 -d -1 -p RTS -e 44 -c 2 -a 0 -i 0 -k MAC
h -t 0.590655000 -s 0 -d -1 -p RTS -e 44 -c 2 -a 0 -i 0 -k MAC
r -t 0.591007421 -s 1 -d -1 -p RTS -e 44 -c 2 -a 0 -i 0 -k MAC
+ -t 0.591017421 -s 1 -d -1 -p CTS -e 38 -c 2 -a 0 -i 0 -k MAC 
- -t 0.591017421 -s 1 -d -1 -p CTS -e 38 -c 2 -a 0 -i 0 -k MAC
h -t 0.591017421 -s 1 -d -1 -p CTS -e 38 -c 2 -a 0 -i 0 -k MAC
r -t 0.591321846 -s 0 -d -1 -p CTS -e 38 -c 2 -a 0 -i 0 -k MAC
+ -t 0.591331846 -s 0 -d 1 -p cbr -e 1078 -c 2 -a 0 -i 8 -k MAC 
- -t 0.591331846 -s 0 -d 1 -p cbr -e 1078 -c 2 -a 0 -i 8 -k MAC
h -t 0.591331846 -s 0 -d 1 -p cbr -e 1078 -c 2 -a 0 -i 8 -k MAC
r -t 0.599956275 -s 1 -d 1 -p cbr -e 1020 -c 2 -a 0 -i 8 -k MAC
+ -t 0.599966275 -s 1 -d -1 -p ACK -e 38 -c 2 -a 0 -i 0 -k MAC 
- -t 0.599966275 -s 1 -d -1 -p ACK -e 38 -c 2 -a 0 -i 0 -k MAC
h -t 0.599966275 -s 1 -d -1 -p ACK -e 38 -c 2 -a 0 -i 0 -k MAC
r -t 0.599981275 -s 1 -d 1 -p cbr -e 1020 -c 2 -a 0 -i 8 -k AGT
r -t 0.600270788 -s 0 -d -1 -p ACK -e 38 -c 2 -a 0 -i 0 -k MAC
+ -t 0.605000000 -s 0 -d -1 -p cbr -e 1000 -c 2 -a 0 -i 9 -k AGT 
- -t 0.605000000 -s 0 -d -1 -p cbr -e 1000 -c 2 -a 0 -i 9 -k AGT
h -t 0.605000000 -s 0 -d -1 -p cbr -e 1000 -c 2 -a 0 -i 9 -k AGT
+ -t 0.605000000 -s 0 -d 1 -p cbr -e 1020 -c 2 -a 0 -i 9 -k RTR 
- -t 0.605000000 -s 0 -d 1 -p cbr -e 1020 -c 2 -a 0 -i 9 -k RTR
h -t 0.605000000 -s 0 -d 1 -p cbr -e 1020 -c 2 -a 0 -i 9 -k RTR
+ -t 0.605615000 -s 0 -d -1 -p RTS -e 44 -c 2 -a 0 -i 0 -k MAC 
- -t 0.605615000 -s 0 -d -1 -p RTS -e 44 -c 2 -a 0 -i 0 -k MAC
h -t 0.605615000 -s 0 -d -1 -p RTS -e 44 -c 2 -a 0 -i 0 -k MAC
r -t 0.605967527 -s 1 -d -1 -p RTS -e 44 -c 2 -a 0 -i 0 -k MAC
+ -t 0.605977527 -s 1 -d -1 -p CTS -e 38 -c 2 -a 0 -i 0 -k MAC 
- -t 0.605977527 -s 1 -d -1 -p CTS -e 38 -c 2 -a 0 -i 0 -k MAC
h -t 0.605977527 -s 1 -d -1 -p CTS -e 38 -c 2 -a 0 -i 0 -k MAC
r -t 0.606282054 -s 0 -d -1 -p CTS -e 38 -c 2 -a 0 -i 0 -k MAC
+ -t 0.606292054 -s 0 -d 1 -p cbr -e 1078 -c 2 -a 0 -i 9 -k MAC 
- -t 0.606292054 -s 0 -d 1 -p cbr -e 1078 -c 2 -a 0 -i 9 -k MAC
h -t 0.606292054 -s 0 -d 1 -p cbr -e 1078 -c 2 -a 0 -i 9 -k MAC
r -t 0.614916581 -s 1 -d 1 -p cbr -e 1020 -c 2 -a 0 -i 9 -k MAC
+ -t 0.614926581 -s 1 -d -1 -p ACK -e 38 -c 2 -a 0 -i 0 -k MAC 
- -t 0.614926581 -s 1 -d -1 -p ACK -e 38 -c 2 -a 0 -i 0 -k MAC
h -t 0.614926581 -s 1 -d -1 -p ACK -e 38 -c 2 -a 0 -i 0 -k MAC
r -t 0.614941581 -s 1 -d 1 -p cbr -e 1020 -c 2 -a 0 -i 9 -k AGT
r -t 0.615231108 -s 0 -d -1 -p ACK -e 38 -c 2 -a 0 -i 0 -k MAC
+ -t 0.620000000 -s 0 -d -1 -p cbr -e 1000 -c 2 -a 0 -i 10 -k AGT 
- -t 0.620000000 -s 0 -d -1 -p cbr -e 1000 -c 2 -a 0 -i 10 -k AGT
h -t 0.620000000 -s 0 -d -1 -p cbr -e 1000 -c 2 -a 0 -i 10 -k AGT
+ -t 0.620000000 -s 0 -d 1 -p cbr -e 1020 -c 2 -a 0 -i 10 -k RTR 
- -t 0.620000000 -s 0 -d 1 -p cbr -e 1020 -c 2 -a 0 -i 10 -k RTR
h -t 0.620000000 -s 0 -d 1 -p cbr -e 1020 -c 2 -a 0 -i 10 -k RTR
+ -t 0.620115000 -s 0 -d -1 -p RTS -e 44 -c 2 -a 0 -i 0 -k MAC 
- -t 0.620115000 -s 0 -d -1 -p RTS -e 44 -c 2 -a 0 -i 0 -k MAC
h -t 0.620115000 -s 0 -d -1 -p RTS -e 44 -c 2 -a 0 -i 0 -k MAC
r -t 0.620467527 -s 1 -d -1 -p RTS -e 44 -c 2 -a 0 -i 0 -k MAC
+ -t 0.620477527 -s 1 -d -1 -p CTS -e 38 -c 2 -a 0 -i 0 -k MAC 
- -t 0.620477527 -s 1 -d -1 -p CTS -e 38 -c 2 -a 0 -i 0 -k MAC
h -t 0.620477527 -s 1 -d -1 -p CTS -e 38 -c 2 -a 0 -i 0 -k MAC
r -t 0.620782054 -s 0 -d -1 -p CTS -e 38 -c 2 -a 0 -i 0 -k MAC
+ -t 0.620792054 -s 0 -d 1 -p cbr -e 1078 -c 2 -a 0 -i 10 -k MAC 
- -t 0.620792054 -s 0 -d 1 -p cbr -e 1078 -c 2 -a 0 -i 10 -k MAC
h -t 0.620792054 -s 0 -d 1 -p cbr -e 1078 -c 2 -a 0 -i 10 -k MAC
r -t 0.629416581 -s 1 -d 1 -p cbr -e 1020 -c 2 -a 0 -i 10 -k MAC
+ -t 0.629426581 -s 1 -d -1 -p ACK -e 38 -c 2 -a 0 -i 0 -k MAC 
- -t 0.629426581 -s 1 -d -1 -p ACK -e 38 -c 2 -a 0 -i 0 -k MAC
h -t 0.629426581 -s 1 -d -1 -p ACK -e 38 -c 2 -a 0 -i 0 -k MAC
r -t 0.629441581 -s 1 -d 1 -p cbr -e 1020 -c 2 -a 0 -i 10 -k AGT
r -t 0.629731108 -s 0 -d -1 -p ACK -e 38 -c 2 -a 0 -i 0 -k MAC
+ -t 0.635000000 -s 0 -d -1 -p cbr -e 1000 -c 2 -a 0 -i 11 -k AGT 
- -t 0.635000000 -s 0 -d -1 -p cbr -e 1000 -c 2 -a 0 -i 11 -k AGT
h -t 0.635000000 -s 0 -d -1 -p cbr -e 1000 -c 2 -a 0 -i 11 -k AGT
+ -t 0.635000000 -s 0 -d 1 -p cbr -e 1020 -c 2 -a 0 -i 11 -k RTR 
- -t 0.635000000 -s 0 -d 1 -p cbr -e 1020 -c 2 -a 0 -i 11 -k RTR
h -t 0.635000000 -s 0 -d 1 -p cbr -e 1020 -c 2 -a 0 -i 11 -k RTR
+ -t 0.635435000 -s 0 -d -1 -p RTS -e 44 -c 2 -a 0 -i 0 -k MAC 
- -t 0.635435000 -s 0 -d -1 -p RTS -e 44 -c 2 -a 0 -i 0 -k MAC
h -t 0.635435000 -s 0 -d -1 -p RTS -e 44 -c 2 -a 0 -i 0 -k MAC
r -t 0.635787527 -s 1 -d -1 -p RTS -e 44 -c 2 -a 0 -i 0 -k MAC
+ -t 0.635797527 -s 1 -d -1 -p CTS -e 38 -c 2 -a 0 -i 0 -k MAC 
- -t 0.635797527 -s 1 -d -1 -p CTS -e 38 -c 2 -a 0 -i 0 -k MAC
h -t 0.635797527 -s 1 -d -1 -p CTS -e 38 -c 2 -a 0 -i 0 -k MAC
r -t 0.636102054 -s 0 -d -1 -p CTS -e 38 -c 2 -a 0 -i 0 -k MAC
+ -t 0.636112054 -s 0 -d 1 -p cbr -e 1078 -c 2 -a 0 -i 11 -k MAC 
- -t 0.636112054 -s 0 -d 1 -p cbr -e 1078 -c 2 -a 0 -i 11 -k MAC
h -t 0.636112054 -s 0 -d 1 -p cbr -e 1078 -c 2 -a 0 -i 11 -k MAC
r -t 0.644736581 -s 1 -d 1 -p cbr -e 1020 -c 2 -a 0 -i 11 -k MAC
+ -t 0.644746581 -s 1 -d -1 -p ACK -e 38 -c 2 -a 0 -i 0 -k MAC 
- -t 0.644746581 -s 1 -d -1 -p ACK -e 38 -c 2 -a 0 -i 0 -k MAC
h -t 0.644746581 -s 1 -d -1 -p ACK -e 38 -c 2 -a 0 -i 0 -k MAC
r -t 0.644761581 -s 1 -d 1 -p cbr -e 1020 -c 2 -a 0 -i 11 -k AGT
r -t 0.645051108 -s 0 -d -1 -p ACK -e 38 -c 2 -a 0 -i 0 -k MAC
+ -t 0.650000000 -s 0 -d -1 -p cbr -e 1000 -c 2 -a 0 -i 12 -k AGT 
- -t 0.650000000 -s 0 -d -1 -p cbr -e 1000 -c 2 -a 0 -i 12 -k AGT
h -t 0.650000000 -s 0 -d -1 -p cbr -e 1000 -c 2 -a 0 -i 12 -k AGT
+ -t 0.650000000 -s 0 -d 1 -p cbr -e 1020 -c 2 -a 0 -i 12 -k RTR 
- -t 0.650000000 -s 0 -d 1 -p cbr -e 1020 -c 2 -a 0 -i 12 -k RTR
h -t 0.650000000 -s 0 -d 1 -p cbr -e 1020 -c 2 -a 0 -i 12 -k RTR
+ -t 0.650155000 -s 0 -d -1 -p RTS -e 44 -c 2 -a 0 -i 0 -k MAC 
- -t 0.650155000 -s 0 -d -1 -p RTS -e 44 -c 2 -a 0 -i 0 -k MAC
h -t 0.650155000 -s 0 -d -1 -p RTS -e 44 -c 2 -a 0 -i 0 -k MAC
r -t 0.650507527 -s 1 -d -1 -p RTS -e 44 -c 2 -a 0 -i 0 -k MAC
+ -t 0.650517527 -s 1 -d -1 -p CTS -e 38 -c 2 -a 0 -i 0 -k MAC 
- -t 0.650517527 -s 1 -d -1 -p CTS -e 38 -c 2 -a 0 -i 0 -k MAC
h -t 0.650517527 -s 1 -d -1 -p CTS -e 38 -c 2 -a 0 -i 0 -k MAC
r -t 0.650822054 -s 0 -d -1 -p CTS -e 38 -c 2 -a 0 -i 0 -k MAC
+ -t 0.650832054 -s 0 -d 1 -p cbr -e 1078 -c 2 -a 0 -i 12 -k MAC 
- -t 0.650832054 -s 0 -d 1 -p cbr -e 1078 -c 2 -a 0 -i 12 -k MAC
h -t 0.650832054 -s 0 -d 1 -p cbr -e 1078 -c 2 -a 0 -i 12 -k MAC
r -t 0.659456581 -s 1 -d 1 -p cbr -e 1020 -c 2 -a 0 -i 12 -k MAC
+ -t 0.659466581 -s 1 -d -1 -p ACK -e 38 -c 2 -a 0 -i 0 -k MAC 
- -t 0.659466581 -s 1 -d -1 -p ACK -e 38 -c 2 -a 0 -i 0 -k MAC
h -t 0.659466581 -s 1 -d -1 -p ACK -e 38 -c 2 -a 0 -i 0 -k MAC
r -t 0.659481581 -s 1 -d 1 -p cbr -e 1020 -c 2 -a 0 -i 12 -k AGT
r -t 0.659771108 -s 0 -d -1 -p ACK -e 38 -c 2 -a 0 -i 0 -k MAC
+ -t 0.665000000 -s 0 -d -1 -p cbr -e 1000 -c 2 -a 0 -i 13 -k AGT 
- -t 0.665000000 -s 0 -d -1 -p cbr -e 1000 -c 2 -a 0 -i 13 -k AGT
h -t 0.665000000 -s 0 -d -1 -p cbr -e 1000 -c 2 -a 0 -i 13 -k AGT
+ -t 0.665000000 -s 0 -d 1 -p cbr -e 1020 -c 2 -a 0 -i 13 -k RTR 
- -t 0.665000000 -s 0 -d 1 -p cbr -e 1020 -c 2 -a 0 -i 13 -k RTR
h -t 0.665000000 -s 0 -d 1 -p cbr -e 1020 -c 2 -a 0 -i 13 -k RTR
+ -t 0.665275000 -s 0 -d -1 -p RTS -e 44 -c 2 -a 0 -i 0 -k MAC 
- -t 0.665275000 -s 0 -d -1 -p RTS -e 44 -c 2 -a 0 -i 0 -k MAC
h -t 0.665275000 -s 0 -d -1 -p RTS -e 44 -c 2 -a 0 -i 0 -k MAC
r -t 0.665627527 -s 1 -d -1 -p RTS -e 44 -c 2 -a 0 -i 0 -k MAC
+ -t 0.665637527 -s 1 -d -1 -p CTS -e 38 -c 2 -a 0 -i 0 -k MAC 
- -t 0.665637527 -s 1 -d -1 -p CTS -e 38 -c 2 -a 0 -i 0 -k MAC
h -t 0.665637527 -s 1 -d -1 -p CTS -e 38 -c 2 -a 0 -i 0 -k MAC
r -t 0.665942054 -s 0 -d -1 -p CTS -e 38 -c 2 -a 0 -i 0 -k MAC
+ -t 0.665952054 -s 0 -d 1 -p cbr -e 1078 -c 2 -a 0 -i 13 -k MAC 
- -t 0.665952054 -s 0 -d 1 -p cbr -e 1078 -c 2 -a 0 -i 13 -k MAC
h -t 0.665952054 -s 0 -d 1 -p cbr -e 1078 -c 2 -a 0 -i 13 -k MAC
r -t 0.674576581 -s 1 -d 1 -p cbr -e 1020 -c 2 -a 0 -i 13 -k MAC
+ -t 0.674586581 -s 1 -d -1 -p ACK -e 38 -c 2 -a 0 -i 0 -k MAC 
- -t 0.674586581 -s 1 -d -1 -p ACK -e 38 -c 2 -a 0 -i 0 -k MAC
h -t 0.674586581 -s 1 -d -1 -p ACK -e 38 -c 2 -a 0 -i 0 -k MAC
r -t 0.674601581 -s 1 -d 1 -p cbr -e 1020 -c 2 -a 0 -i 13 -k AGT
r -t 0.674891108 -s 0 -d -1 -p ACK -e 38 -c 2 -a 0 -i 0 -k MAC
+ -t 0.680000000 -s 0 -d -1 -p cbr -e 1000 -c 2 -a 0 -i 14 -k AGT 
- -t 0.680000000 -s 0 -d -1 -p cbr -e 1000 -c 2 -a 0 -i 14 -k AGT
h -t 0.680000000 -s 0 -d -1 -p cbr -e 1000 -c 2 -a 0 -i 14 -k AGT
+ -t 0.680000000 -s 0 -d 1 -p cbr -e 1020 -c 2 -a 0 -i 14 -k RTR 
- -t 0.680000000 -s 0 -d 1 -p cbr -e 1020 -c 2 -a 0 -i 14 -k RTR
h -t 0.680000000 -s 0 -d 1 -p cbr -e 1020 -c 2 -a 0 -i 14 -k RTR
+ -t 0.680595000 -s 0 -d -1 -p RTS -e 44 -c 2 -a 0 -i 0 -k MAC 
- -t 0.680595000 -s 0 -d -1 -p RTS -e 44 -c 2 -a 0 -i 0 -k MAC
h -t 0.680595000 -s 0 -d -1 -p RTS -e 44 -c 2 -a 0 -i 0 -k MAC
r -t 0.680947527 -s 1 -d -1 -p RTS -e 44 -c 2 -a 0 -i 0 -k MAC
+ -t 0.680957527 -s 1 -d -1 -p CTS -e 38 -c 2 -a 0 -i 0 -k MAC 
- -t 0.680957527 -s 1 -d -1 -p CTS -e 38 -c 2 -a 0 -i 0 -k MAC
h -t 0.680957527 -s 1 -d -1 -p CTS -e 38 -c 2 -a 0 -i 0 -k MAC
r -t 0.681262054 -s 0 -d -1 -p CTS -e 38 -c 2 -a 0 -i 0 -k MAC
+ -t 0.681272054 -s 0 -d 1 -p cbr -e 1078 -c 2 -a 0 -i 14 -k MAC 
- -t 0.681272054 -s 0 -d 1 -p cbr -e 1078 -c 2 -a 0 -i 14 -k MAC
h -t 0.681272054 -s 0 -d 1 -p cbr -e 1078 -c 2 -a 0 -i 14 -k MAC
r -t 0.689896581 -s 1 -d 1 -p cbr -e 1020 -c 2 -a 0 -i 14 -k MAC
+ -t 0.689906581 -s 1 -d -1 -p ACK -e 38 -c 2 -a 0 -i 0 -k MAC 
- -t 0.689906581 -s 1 -d -1 -p ACK -e 38 -c 2 -a 0 -i 0 -k MAC
h -t 0.689906581 -s 1 -d -1 -p ACK -e 38 -c 2 -a 0 -i 0 -k MAC
r -t 0.689921581 -s 1 -d 1 -p cbr -e 1020 -c 2 -a 0 -i 14 -k AGT
r -t 0.690211108 -s 0 -d -1 -p ACK -e 38 -c 2 -a 0 -i 0 -k MAC
+ -t 0.695000000 -s 0 -d -1 -p cbr -e 1000 -c 2 -a 0 -i 15 -k AGT 
- -t 0.695000000 -s 0 -d -1 -p cbr -e 1000 -c 2 -a 0 -i 15 -k AGT
h -t 0.695000000 -s 0 -d -1 -p cbr -e 1000 -c 2 -a 0 -i 15 -k AGT
+ -t 0.695000000 -s 0 -d 1 -p cbr -e 1020 -c 2 -a 0 -i 15 -k RTR 
- -t 0.695000000 -s 0 -d 1 -p cbr -e 1020 -c 2 -a 0 -i 15 -k RTR
h -t 0.695000000 -s 0 -d 1 -p cbr -e 1020 -c 2 -a 0 -i 15 -k RTR
+ -t 0.695275000 -s 0 -d -1 -p RTS -e 44 -c 2 -a 0 -i 0 -k MAC 
- -t 0.695275000 -s 0 -d -1 -p RTS -e 44 -c 2 -a 0 -i 0 -k MAC
h -t 0.695275000 -s 0 -d -1 -p RTS -e 44 -c 2 -a 0 -i 0 -k MAC
r -t 0.695627527 -s 1 -d -1 -p RTS -e 44 -c 2 -a 0 -i 0 -k MAC
+ -t 0.695637527 -s 1 -d -1 -p CTS -e 38 -c 2 -a 0 -i 0 -k MAC 
- -t 0.695637527 -s 1 -d -1 -p CTS -e 38 -c 2 -a 0 -i 0 -k MAC
h -t 0.695637527 -s 1 -d -1 -p CTS -e 38 -c 2 -a 0 -i 0 -k MAC
r -t 0.695942054 -s 0 -d -1 -p CTS -e 38 -c 2 -a 0 -i 0 -k MAC
+ -t 0.695952054 -s 0 -d 1 -p cbr -e 1078 -c 2 -a 0 -i 15 -k MAC 
- -t 0.695952054 -s 0 -d 1 -p cbr -e 1078 -c 2 -a 0 -i 15 -k MAC
h -t 0.695952054 -s 0 -d 1 -p cbr -e 1078 -c 2 -a 0 -i 15 -k MAC
r -t 0.704576581 -s 1 -d 1 -p cbr -e 1020 -c 2 -a 0 -i 15 -k MAC
+ -t 0.704586581 -s 1 -d -1 -p ACK -e 38 -c 2 -a 0 -i 0 -k MAC 
- -t 0.704586581 -s 1 -d -1 -p ACK -e 38 -c 2 -a 0 -i 0 -k MAC
h -t 0.704586581 -s 1 -d -1 -p ACK -e 38 -c 2 -a 0 -i 0 -k MAC
r -t 0.704601581 -s 1 -d 1 -p cbr -e 1020 -c 2 -a 0 -i 15 -k AGT
r -t 0.704891108 -s 0 -d -1 -p ACK -e 38 -c 2 -a 0 -i 0 -k MAC
+ -t 0.710000000 -s 0 -d -1 -p cbr -e 1000 -c 2 -a 0 -i 16 -k AGT 
- -t 0.710000000 -s 0 -d -1 -p cbr -e 1000 -c 2 -a 0 -i 16 -k AGT
h -t 0.710000000 -s 0 -d -1 -p cbr -e 1000 -c 2 -a 0 -i 16 -k AGT
+ -t 0.710000000 -s 0 -d 1 -p cbr -e 1020 -c 2 -a 0 -i 16 -k RTR 
- -t 0.710000000 -s 0 -d 1 -p cbr -e 1020 -c 2 -a 0 -i 16 -k RTR
h -t 0.710000000 -s 0 -d 1 -p cbr -e 1020 -c 2 -a 0 -i 16 -k RTR
+ -t 0.710135000 -s 0 -d -1 -p RTS -e 44 -c 2 -a 0 -i 0 -k MAC 
- -t 0.710135000 -s 0 -d -1 -p RTS -e 44 -c 2 -a 0 -i 0 -k MAC
h -t 0.710135000 -s 0 -d -1 -p RTS -e 44 -c 2 -a 0 -i 0 -k MAC
r -t 0.710487527 -s 1 -d -1 -p RTS -e 44 -c 2 -a 0 -i 0 -k MAC
+ -t 0.710497527 -s 1 -d -1 -p CTS -e 38 -c 2 -a 0 -i 0 -k MAC 
- -t 0.710497527 -s 1 -d -1 -p CTS -e 38 -c 2 -a 0 -i 0 -k MAC
h -t 0.710497527 -s 1 -d -1 -p CTS -e 38 -c 2 -a 0 -i 0 -k MAC
r -t 0.710802054 -s 0 -d -1 -p CTS -e 38 -c 2 -a 0 -i 0 -k MAC
+ -t 0.710812054 -s 0 -d 1 -p cbr -e 1078 -c 2 -a 0 -i 16 -k MAC 
- -t 0.710812054 -s 0 -d 1 -p cbr -e 1078 -c 2 -a 0 -i 16 -k MAC
h -t 0.710812054 -s 0 -d 1 -p cbr -e 1078 -c 2 -a 0 -i 16 -k MAC
r -t 0.719436581 -s 1 -d 1 -p cbr -e 1020 -c 2 -a 0 -i 16 -k MAC
+ -t 0.719446581 -s 1 -d -1 -p ACK -e 38 -c 2 -a 0 -i 0 -k MAC 
- -t 0.719446581 -s 1 -d -1 -p ACK -e 38 -c 2 -a 0 -i 0 -k MAC
h -t 0.719446581 -s 1 -d -1 -p ACK -e 38 -c 2 -a 0 -i 0 -k MAC
r -t 0.719461581 -s 1 -d 1 -p cbr -e 1020 -c 2 -a 0 -i 16 -k AGT
r -t 0.719751108 -s 0 -d -1 -p ACK -e 38 -c 2 -a 0 -i 0 -k MAC
+ -t 0.725000000 -s 0 -d -1 -p cbr -e 1000 -c 2 -a 0 -i 17 -k AGT 
- -t 0.725000000 -s 0 -d -1 -p cbr -e 1000 -c 2 -a 0 -i 17 -k AGT
h -t 0.725000000 -s 0 -d -1 -p cbr -e 1000 -c 2 -a 0 -i 17 -k AGT
+ -t 0.725000000 -s 0 -d 1 -p cbr -e 1020 -c 2 -a 0 -i 17 -k RTR 
- -t 0.725000000 -s 0 -d 1 -p cbr -e 1020 -c 2 -a 0 -i 17 -k RTR
h -t 0.725000000 -s 0 -d 1 -p cbr -e 1020 -c 2 -a 0 -i 17 -k RTR
+ -t 0.725415000 -s 0 -d -1 -p RTS -e 44 -c 2 -a 0 -i 0 -k MAC 
- -t 0.725415000 -s 0 -d -1 -p RTS -e 44 -c 2 -a 0 -i 0 -k MAC
h -t 0.725415000 -s 0 -d -1 -p RTS -e 44 -c 2 -a 0 -i 0 -k MAC
r -t 0.725767527 -s 1 -d -1 -p RTS -e 44 -c 2 -a 0 -i 0 -k MAC
+ -t 0.725777527 -s 1 -d -1 -p CTS -e 38 -c 2 -a 0 -i 0 -k MAC 
- -t 0.725777527 -s 1 -d -1 -p CTS -e 38 -c 2 -a 0 -i 0 -k MAC
h -t 0.725777527 -s 1 -d -1 -p CTS -e 38 -c 2 -a 0 -i 0 -k MAC
r -t 0.726082054 -s 0 -d -1 -p CTS -e 38 -c 2 -a 0 -i 0 -k MAC
+ -t 0.726092054 -s 0 -d 1 -p cbr -e 1078 -c 2 -a 0 -i 17 -k MAC 
- -t 0.726092054 -s 0 -d 1 -p cbr -e 1078 -c 2 -a 0 -i 17 -k MAC
h -t 0.726092054 -s 0 -d 1 -p cbr -e 1078 -c 2 -a 0 -i 17 -k MAC
r -t 0.734716581 -s 1 -d 1 -p cbr -e 1020 -c 2 -a 0 -i 17 -k MAC
+ -t 0.734726581 -s 1 -d -1 -p ACK -e 38 -c 2 -a 0 -i 0 -k MAC 
- -t 0.734726581 -s 1 -d -1 -p ACK -e 38 -c 2 -a 0 -i 0 -k MAC
h -t 0.734726581 -s 1 -d -1 -p ACK -e 38 -c 2 -a 0 -i 0 -k MAC
r -t 0.734741581 -s 1 -d 1 -p cbr -e 1020 -c 2 -a 0 -i 17 -k AGT
r -t 0.735031108 -s 0 -d -1 -p ACK -e 38 -c 2 -a 0 -i 0 -k MAC
+ -t 0.740000000 -s 0 -d -1 -p cbr -e 1000 -c 2 -a 0 -i 18 -k AGT 
- -t 0.740000000 -s 0 -d -1 -p cbr -e 1000 -c 2 -a 0 -i 18 -k AGT
h -t 0.740000000 -s 0 -d -1 -p cbr -e 1000 -c 2 -a 0 -i 18 -k AGT
+ -t 0.740000000 -s 0 -d 1 -p cbr -e 1020 -c 2 -a 0 -i 18 -k RTR 
- -t 0.740000000 -s 0 -d 1 -p cbr -e 1020 -c 2 -a 0 -i 18 -k RTR
h -t 0.740000000 -s 0 -d 1 -p cbr -e 1020 -c 2 -a 0 -i 18 -k RTR
+ -t 0.740355000 -s 0 -d -1 -p RTS -e 44 -c 2 -a 0 -i 0 -k MAC 
- -t 0.740355000 -s 0 -d -1 -p RTS -e 44 -c 2 -a 0 -i 0 -k MAC
h -t 0.740355000 -s 0 -d -1 -p RTS -e 44 -c 2 -a 0 -i 0 -k MAC
r -t 0.740707527 -s 1 -d -1 -p RTS -e 44 -c 2 -a 0 -i 0 -k MAC
+ -t 0.740717527 -s 1 -d -1 -p CTS -e 38 -c 2 -a 0 -i 0 -k MAC 
- -t 0.740717527 -s 1 -d -1 -p CTS -e 38 -c 2 -a 0 -i 0 -k MAC
h -t 0.740717527 -s 1 -d -1 -p CTS -e 38 -c 2 -a 0 -i 0 -k MAC
r -t 0.741022054 -s 0 -d -1 -p CTS -e 38 -c 2 -a 0 -i 0 -k MAC
+ -t 0.741032054 -s 0 -d 1 -p cbr -e 1078 -c 2 -a 0 -i 18 -k MAC 
- -t 0.741032054 -s 0 -d 1 -p cbr -e 1078 -c 2 -a 0 -i 18 -k MAC
h -t 0.741032054 -s 0 -d 1 -p cbr -e 1078 -c 2 -a 0 -i 18 -k MAC
r -t 0.749656581 -s 1 -d 1 -p cbr -e 1020 -c 2 -a 0 -i 18 -k MAC
+ -t 0.749666581 -s 1 -d -1 -p ACK -e 38 -c 2 -a 0 -i 0 -k MAC 
- -t 0.749666581 -s 1 -d -1 -p ACK -e 38 -c 2 -a 0 -i 0 -k MAC
h -t 0.749666581 -s 1 -d -1 -p ACK -e 38 -c 2 -a 0 -i 0 -k MAC
r -t 0.749681581 -s 1 -d 1 -p cbr -e 1020 -c 2 -a 0 -i 18 -k AGT
r -t 0.749971108 -s 0 -d -1 -p ACK -e 38 -c 2 -a 0 -i 0 -k MAC
+ -t 0.755000000 -s 0 -d -1 -p cbr -e 1000 -c 2 -a 0 -i 19 -k AGT 
- -t 0.755000000 -s 0 -d -1 -p cbr -e 1000 -c 2 -a 0 -i 19 -k AGT
h -t 0.755000000 -s 0 -d -1 -p cbr -e 1000 -c 2 -a 0 -i 19 -k AGT
+ -t 0.755000000 -s 0 -d 1 -p cbr -e 1020 -c 2 -a 0 -i 19 -k RTR 
- -t 0.755000000 -s 0 -d 1 -p cbr -e 1020 -c 2 -a 0 -i 19 -k RTR
h -t 0.755000000 -s 0 -d 1 -p cbr -e 1020 -c 2 -a 0 -i 19 -k RTR
+ -t 0.755355000 -s 0 -d -1 -p RTS -e 44 -c 2 -a 0 -i 0 -k MAC 
- -t 0.755355000 -s 0 -d -1 -p RTS -e 44 -c 2 -a 0 -i 0 -k MAC
h -t 0.755355000 -s 0 -d -1 -p RTS -e 44 -c 2 -a 0 -i 0 -k MAC
r -t 0.755707527 -s 1 -d -1 -p RTS -e 44 -c 2 -a 0 -i 0 -k MAC
+ -t 0.755717527 -s 1 -d -1 -p CTS -e 38 -c 2 -a 0 -i 0 -k MAC 
- -t 0.755717527 -s 1 -d -1 -p CTS -e 38 -c 2 -a 0 -i 0 -k MAC
h -t 0.755717527 -s 1 -d -1 -p CTS -e 38 -c 2 -a 0 -i 0 -k MAC
r -t 0.756022054 -s 0 -d -1 -p CTS -e 38 -c 2 -a 0 -i 0 -k MAC
+ -t 0.756032054 -s 0 -d 1 -p cbr -e 1078 -c 2 -a 0 -i 19 -k MAC 
- -t 0.756032054 -s 0 -d 1 -p cbr -e 1078 -c 2 -a 0 -i 19 -k MAC
h -t 0.756032054 -s 0 -d 1 -p cbr -e 1078 -c 2 -a 0 -i 19 -k MAC
r -t 0.764656581 -s 1 -d 1 -p cbr -e 1020 -c 2 -a 0 -i 19 -k MAC
+ -t 0.764666581 -s 1 -d -1 -p ACK -e 38 -c 2 -a 0 -i 0 -k MAC 
- -t 0.764666581 -s 1 -d -1 -p ACK -e 38 -c 2 -a 0 -i 0 -k MAC
h -t 0.764666581 -s 1 -d -1 -p ACK -e 38 -c 2 -a 0 -i 0 -k MAC
r -t 0.764681581 -s 1 -d 1 -p cbr -e 1020 -c 2 -a 0 -i 19 -k AGT