n -t * -s 0  -x 399 -y 197 -Z 0 -z 30  -v circle -c black
n -t * -s 1  -x -263 -y 69 -Z 0 -z 30  -v circle -c black
n -t * -s 2  -x 13 -y 223 -Z 0 -z 30  -v circle -c black
n -t * -s 3  -x -81 -y 42 -Z 0 -z 30  -v circle -c black
n -t * -s 4  -x 382 -y -1 -Z 0 -z 30  -v circle -c black
n -t * -s 5  -x 352 -y 385 -Z 0 -z 30  -v circle -c black
n -t * -s 6  -x 344 -y 493 -Z 0 -z 30  -v circle -c black
n -t * -s 7  -x -200 -y 502 -Z 0 -z 30  -v circle -c black
n -t * -s 8  -x -245 -y 338 -Z 0 -z 30  -v circle -c black
n -t * -s 9  -x -72 -y 404 -Z 0 -z 30  -v circle -c black
n -t * -s 10  -x 41 -y 540 -Z 0 -z 30  -v circle -c black
n -t * -s 11  -x 103 -y 436 -Z 0 -z 30  -v circle -c black
n -t * -s 12  -x 151 -y 36 -Z 0 -z 30  -v circle -c black
n -t * -s 13  -x 594 -y 144 -Z 0 -z 30  -v circle -c black
n -t * -s 14  -x 565 -y 327 -Z 0 -z 30  -v circle -c black
n -t * -s 15  -x -307 -y 210 -Z 0 -z 30  -v circle -c black
n -t * -s 16  -x -156 -y 190 -Z 0 -z 30  -v circle -c black
n -t * -s 17  -x -152 -y 244 -Z 0 -z 30  -v circle -c black
n -t * -s 18  -x -403 -y 417 -Z 0 -z 30  -v circle -c black
n -t * -s 19  -x -164 -y 317 -Z 0 -z 30  -v circle -c black
V -t * -v 1.0a5 -a 0
W -t * -x 600 -y 600
A -t * -n 1 -p 0 -o 0xffffffff -c 31 -a 1
A -t * -h 1 -m 2147483647 -s 0
n -t 0 -s 1 -S DLABEL -l "SOURCE" -L ""
n -t 0 -s 11 -S DLABEL -l "DESTINATION" -L ""
m -t 0 -s 1 -n m -c pink -h circle
m -t 0 -s 11 -n m -c blue -h circle
+ -t 0.300000000 -s 1 -d -1 -p tcp -e 40 -c 2 -a 0 -i 0 -k AGT 
- -t 0.300000000 -s 1 -d -1 -p tcp -e 40 -c 2 -a 0 -i 0 -k AGT
h -t 0.300000000 -s 1 -d -1 -p tcp -e 40 -c 2 -a 0 -i 0 -k AGT
+ -t 0.300000000 -s 1 -d -1 -p AODV -e 48 -c 2 -a 0 -i 0 -k RTR 
- -t 0.300000000 -s 1 -d -1 -p AODV -e 48 -c 2 -a 0 -i 0 -k RTR
h -t 0.300000000 -s 1 -d -1 -p AODV -e 48 -c 2 -a 0 -i 0 -k RTR
r -t 0.300988492 -s 15 -d -1 -p AODV -e 48 -c 2 -a 0 -i 0 -k RTR
r -t 0.300988538 -s 16 -d -1 -p AODV -e 48 -c 2 -a 0 -i 0 -k RTR
r -t 0.300988613 -s 3 -d -1 -p AODV -e 48 -c 2 -a 0 -i 0 -k RTR
r -t 0.300988691 -s 17 -d -1 -p AODV -e 48 -c 2 -a 0 -i 0 -k RTR
+ -t 0.301869719 -s 15 -d -1 -p AODV -e 48 -c 2 -a 0 -i 0 -k RTR 
- -t 0.301869719 -s 15 -d -1 -p AODV -e 48 -c 2 -a 0 -i 0 -k RTR
h -t 0.301869719 -s 15 -d -1 -p AODV -e 48 -c 2 -a 0 -i 0 -k RTR
r -t 0.303018193 -s 8 -d -1 -p AODV -e 48 -c 2 -a 0 -i 0 -k RTR
r -t 0.303018211 -s 1 -d -1 -p AODV -e 48 -c 2 -a 0 -i 0 -k RTR
r -t 0.303018227 -s 16 -d -1 -p AODV -e 48 -c 2 -a 0 -i 0 -k RTR
r -t 0.303018248 -s 17 -d -1 -p AODV -e 48 -c 2 -a 0 -i 0 -k RTR
r -t 0.303018314 -s 19 -d -1 -p AODV -e 48 -c 2 -a 0 -i 0 -k RTR
r -t 0.303018480 -s 18 -d -1 -p AODV -e 48 -c 2 -a 0 -i 0 -k RTR
+ -t 0.304118308 -s 17 -d -1 -p AODV -e 48 -c 2 -a 0 -i 0 -k RTR 
- -t 0.304118308 -s 17 -d -1 -p AODV -e 48 -c 2 -a 0 -i 0 -k RTR
h -t 0.304118308 -s 17 -d -1 -p AODV -e 48 -c 2 -a 0 -i 0 -k RTR
r -t 0.305106489 -s 16 -d -1 -p AODV -e 48 -c 2 -a 0 -i 0 -k RTR
r -t 0.305106555 -s 19 -d -1 -p AODV -e 48 -c 2 -a 0 -i 0 -k RTR
r -t 0.305106749 -s 8 -d -1 -p AODV -e 48 -c 2 -a 0 -i 0 -k RTR
r -t 0.305106837 -s 15 -d -1 -p AODV -e 48 -c 2 -a 0 -i 0 -k RTR
r -t 0.305106863 -s 2 -d -1 -p AODV -e 48 -c 2 -a 0 -i 0 -k RTR
r -t 0.305106905 -s 9 -d -1 -p AODV -e 48 -c 2 -a 0 -i 0 -k RTR
r -t 0.305106999 -s 1 -d -1 -p AODV -e 48 -c 2 -a 0 -i 0 -k RTR
r -t 0.305107022 -s 3 -d -1 -p AODV -e 48 -c 2 -a 0 -i 0 -k RTR
+ -t 0.305400272 -s 16 -d -1 -p AODV -e 48 -c 2 -a 0 -i 0 -k RTR 
- -t 0.305400272 -s 16 -d -1 -p AODV -e 48 -c 2 -a 0 -i 0 -k RTR
h -t 0.305400272 -s 16 -d -1 -p AODV -e 48 -c 2 -a 0 -i 0 -k RTR
+ -t 0.306109105 -s 19 -d -1 -p AODV -e 48 -c 2 -a 0 -i 0 -k RTR 
- -t 0.306109105 -s 19 -d -1 -p AODV -e 48 -c 2 -a 0 -i 0 -k RTR
h -t 0.306109105 -s 19 -d -1 -p AODV -e 48 -c 2 -a 0 -i 0 -k RTR
+ -t 0.306244987 -s 9 -d -1 -p AODV -e 48 -c 2 -a 0 -i 0 -k RTR 
- -t 0.306244987 -s 9 -d -1 -p AODV -e 48 -c 2 -a 0 -i 0 -k RTR
h -t 0.306244987 -s 9 -d -1 -p AODV -e 48 -c 2 -a 0 -i 0 -k RTR
r -t 0.306588453 -s 17 -d -1 -p AODV -e 48 -c 2 -a 0 -i 0 -k RTR
r -t 0.306588696 -s 19 -d -1 -p AODV -e 48 -c 2 -a 0 -i 0 -k RTR
r -t 0.306588780 -s 15 -d -1 -p AODV -e 48 -c 2 -a 0 -i 0 -k RTR
r -t 0.306588811 -s 1 -d -1 -p AODV -e 48 -c 2 -a 0 -i 0 -k RTR
r -t 0.306588825 -s 3 -d -1 -p AODV -e 48 -c 2 -a 0 -i 0 -k RTR
r -t 0.306588846 -s 2 -d -1 -p AODV -e 48 -c 2 -a 0 -i 0 -k RTR
r -t 0.306588848 -s 8 -d -1 -p AODV -e 48 -c 2 -a 0 -i 0 -k RTR
r -t 0.306589039 -s 9 -d -1 -p AODV -e 48 -c 2 -a 0 -i 0 -k RTR
r -t 0.307646943 -s 17 -d -1 -p AODV -e 48 -c 2 -a 0 -i 0 -k RTR
r -t 0.307646975 -s 8 -d -1 -p AODV -e 48 -c 2 -a 0 -i 0 -k RTR
r -t 0.307647118 -s 9 -d -1 -p AODV -e 48 -c 2 -a 0 -i 0 -k RTR
r -t 0.307647121 -s 16 -d -1 -p AODV -e 48 -c 2 -a 0 -i 0 -k RTR
r -t 0.307647292 -s 15 -d -1 -p AODV -e 48 -c 2 -a 0 -i 0 -k RTR
r -t 0.307647325 -s 7 -d -1 -p AODV -e 48 -c 2 -a 0 -i 0 -k RTR
r -t 0.307647364 -s 2 -d -1 -p AODV -e 48 -c 2 -a 0 -i 0 -k RTR
r -t 0.308865541 -s 19 -d -1 -p AODV -e 48 -c 2 -a 0 -i 0 -k RTR
r -t 0.308865656 -s 7 -d -1 -p AODV -e 48 -c 2 -a 0 -i 0 -k RTR
r -t 0.308865708 -s 10 -d -1 -p AODV -e 48 -c 2 -a 0 -i 0 -k RTR
r -t 0.308865711 -s 11 -d -1 -p AODV -e 48 -c 2 -a 0 -i 0 -k RTR
+ -t 0.308865711 -s 11 -d 9 -p AODV -e 44 -c 2 -a 0 -i 0 -k RTR 
- -t 0.308865711 -s 11 -d 9 -p AODV -e 44 -c 2 -a 0 -i 0 -k RTR
h -t 0.308865711 -s 11 -d 9 -p AODV -e 44 -c 2 -a 0 -i 0 -k RTR
r -t 0.308865715 -s 17 -d -1 -p AODV -e 48 -c 2 -a 0 -i 0 -k RTR
r -t 0.308865736 -s 8 -d -1 -p AODV -e 48 -c 2 -a 0 -i 0 -k RTR
r -t 0.308865785 -s 2 -d -1 -p AODV -e 48 -c 2 -a 0 -i 0 -k RTR
r -t 0.308865885 -s 16 -d -1 -p AODV -e 48 -c 2 -a 0 -i 0 -k RTR
+ -t 0.308980168 -s 3 -d -1 -p AODV -e 48 -c 2 -a 0 -i 0 -k RTR 
- -t 0.308980168 -s 3 -d -1 -p AODV -e 48 -c 2 -a 0 -i 0 -k RTR
h -t 0.308980168 -s 3 -d -1 -p AODV -e 48 -c 2 -a 0 -i 0 -k RTR
+ -t 0.309406845 -s 8 -d -1 -p AODV -e 48 -c 2 -a 0 -i 0 -k RTR 
- -t 0.309406845 -s 8 -d -1 -p AODV -e 48 -c 2 -a 0 -i 0 -k RTR
h -t 0.309406845 -s 8 -d -1 -p AODV -e 48 -c 2 -a 0 -i 0 -k RTR
+ -t 0.311134735 -s 7 -d -1 -p AODV -e 48 -c 2 -a 0 -i 0 -k RTR 
- -t 0.311134735 -s 7 -d -1 -p AODV -e 48 -c 2 -a 0 -i 0 -k RTR
h -t 0.311134735 -s 7 -d -1 -p AODV -e 48 -c 2 -a 0 -i 0 -k RTR
+ -t 0.311381715 -s 18 -d -1 -p AODV -e 48 -c 2 -a 0 -i 0 -k RTR 
- -t 0.311381715 -s 18 -d -1 -p AODV -e 48 -c 2 -a 0 -i 0 -k RTR
h -t 0.311381715 -s 18 -d -1 -p AODV -e 48 -c 2 -a 0 -i 0 -k RTR
+ -t 0.311507540 -s 2 -d -1 -p AODV -e 48 -c 2 -a 0 -i 0 -k RTR 
- -t 0.311507540 -s 2 -d -1 -p AODV -e 48 -c 2 -a 0 -i 0 -k RTR
h -t 0.311507540 -s 2 -d -1 -p AODV -e 48 -c 2 -a 0 -i 0 -k RTR
r -t 0.312948409 -s 17 -d -1 -p AODV -e 48 -c 2 -a 0 -i 0 -k RTR
r -t 0.312948428 -s 16 -d -1 -p AODV -e 48 -c 2 -a 0 -i 0 -k RTR
r -t 0.312948521 -s 9 -d -1 -p AODV -e 48 -c 2 -a 0 -i 0 -k RTR
r -t 0.312948522 -s 19 -d -1 -p AODV -e 48 -c 2 -a 0 -i 0 -k RTR
r -t 0.312948534 -s 3 -d -1 -p AODV -e 48 -c 2 -a 0 -i 0 -k RTR
r -t 0.312948625 -s 11 -d -1 -p AODV -e 48 -c 2 -a 0 -i 0 -k RTR
r -t 0.312948629 -s 12 -d -1 -p AODV -e 48 -c 2 -a 0 -i 0 -k RTR
+ -t 0.312952565 -s 10 -d -1 -p AODV -e 48 -c 2 -a 0 -i 0 -k RTR 
- -t 0.312952565 -s 10 -d -1 -p AODV -e 48 -c 2 -a 0 -i 0 -k RTR
h -t 0.312952565 -s 10 -d -1 -p AODV -e 48 -c 2 -a 0 -i 0 -k RTR
+ -t 0.314632404 -s 9 -d 17 -p AODV -e 44 -c 2 -a 0 -i 0 -k RTR 
- -t 0.314632404 -s 9 -d 17 -p AODV -e 44 -c 2 -a 0 -i 0 -k RTR
h -t 0.314632404 -s 9 -d 17 -p AODV -e 44 -c 2 -a 0 -i 0 -k RTR
r -t 0.315925397 -s 11 -d -1 -p AODV -e 48 -c 2 -a 0 -i 0 -k RTR
r -t 0.315925583 -s 9 -d -1 -p AODV -e 48 -c 2 -a 0 -i 0 -k RTR
r -t 0.315925807 -s 7 -d -1 -p AODV -e 48 -c 2 -a 0 -i 0 -k RTR
r -t 0.317722479 -s 19 -d -1 -p AODV -e 48 -c 2 -a 0 -i 0 -k RTR
r -t 0.317722641 -s 17 -d -1 -p AODV -e 48 -c 2 -a 0 -i 0 -k RTR
r -t 0.317722674 -s 15 -d -1 -p AODV -e 48 -c 2 -a 0 -i 0 -k RTR
r -t 0.317722767 -s 7 -d -1 -p AODV -e 48 -c 2 -a 0 -i 0 -k RTR
r -t 0.317722776 -s 16 -d -1 -p AODV -e 48 -c 2 -a 0 -i 0 -k RTR
r -t 0.317722789 -s 18 -d -1 -p AODV -e 48 -c 2 -a 0 -i 0 -k RTR
r -t 0.317722817 -s 9 -d -1 -p AODV -e 48 -c 2 -a 0 -i 0 -k RTR
r -t 0.318981304 -s 9 -d -1 -p AODV -e 48 -c 2 -a 0 -i 0 -k RTR
r -t 0.318981580 -s 10 -d -1 -p AODV -e 48 -c 2 -a 0 -i 0 -k RTR
+ -t 0.321998084 -s 12 -d -1 -p AODV -e 48 -c 2 -a 0 -i 0 -k RTR 
- -t 0.321998084 -s 12 -d -1 -p AODV -e 48 -c 2 -a 0 -i 0 -k RTR
h -t 0.321998084 -s 12 -d -1 -p AODV -e 48 -c 2 -a 0 -i 0 -k RTR
+ -t 0.322739383 -s 17 -d 1 -p AODV -e 44 -c 2 -a 0 -i 0 -k RTR 
- -t 0.322739383 -s 17 -d 1 -p AODV -e 44 -c 2 -a 0 -i 0 -k RTR
h -t 0.322739383 -s 17 -d 1 -p AODV -e 44 -c 2 -a 0 -i 0 -k RTR
r -t 0.326686413 -s 16 -d -1 -p AODV -e 48 -c 2 -a 0 -i 0 -k RTR
r -t 0.326686473 -s 1 -d -1 -p AODV -e 48 -c 2 -a 0 -i 0 -k RTR
r -t 0.326686539 -s 2 -d -1 -p AODV -e 48 -c 2 -a 0 -i 0 -k RTR
r -t 0.326686573 -s 17 -d -1 -p AODV -e 48 -c 2 -a 0 -i 0 -k RTR
r -t 0.326686633 -s 12 -d -1 -p AODV -e 48 -c 2 -a 0 -i 0 -k RTR
+ -t 0.328310646 -s 1 -d 17 -p tcp -e 40 -c 2 -a 0 -i 0 -k RTR 
- -t 0.328310646 -s 1 -d 17 -p tcp -e 40 -c 2 -a 0 -i 0 -k RTR
h -t 0.328310646 -s 1 -d 17 -p tcp -e 40 -c 2 -a 0 -i 0 -k RTR
+ -t 0.330316718 -s 17 -d 9 -p tcp -e 40 -c 2 -a 0 -i 0 -k RTR 
- -t 0.330316718 -s 17 -d 9 -p tcp -e 40 -c 2 -a 0 -i 0 -k RTR
h -t 0.330316718 -s 17 -d 9 -p tcp -e 40 -c 2 -a 0 -i 0 -k RTR
+ -t 0.332362507 -s 9 -d 11 -p tcp -e 40 -c 2 -a 0 -i 0 -k RTR 
- -t 0.332362507 -s 9 -d 11 -p tcp -e 40 -c 2 -a 0 -i 0 -k RTR
h -t 0.332362507 -s 9 -d 11 -p tcp -e 40 -c 2 -a 0 -i 0 -k RTR
r -t 0.334288286 -s 11 -d 11 -p tcp -e 40 -c 2 -a 0 -i 0 -k AGT
+ -t 0.334288286 -s 11 -d -1 -p ack -e 40 -c 2 -a 0 -i 1 -k AGT 
- -t 0.334288286 -s 11 -d -1 -p ack -e 40 -c 2 -a 0 -i 1 -k AGT
h -t 0.334288286 -s 11 -d -1 -p ack -e 40 -c 2 -a 0 -i 1 -k AGT
+ -t 0.334288286 -s 11 -d 9 -p ack -e 40 -c 2 -a 0 -i 1 -k RTR 
- -t 0.334288286 -s 11 -d 9 -p ack -e 40 -c 2 -a 0 -i 1 -k RTR
h -t 0.334288286 -s 11 -d 9 -p ack -e 40 -c 2 -a 0 -i 1 -k RTR
+ -t 0.336334065 -s 9 -d 17 -p ack -e 40 -c 2 -a 0 -i 1 -k RTR 
- -t 0.336334065 -s 9 -d 17 -p ack -e 40 -c 2 -a 0 -i 1 -k RTR
h -t 0.336334065 -s 9 -d 17 -p ack -e 40 -c 2 -a 0 -i 1 -k RTR
+ -t 0.338459854 -s 17 -d 1 -p ack -e 40 -c 2 -a 0 -i 1 -k RTR 
- -t 0.338459854 -s 17 -d 1 -p ack -e 40 -c 2 -a 0 -i 1 -k RTR
h -t 0.338459854 -s 17 -d 1 -p ack -e 40 -c 2 -a 0 -i 1 -k RTR
r -t 0.340525926 -s 1 -d 1 -p ack -e 40 -c 2 -a 0 -i 1 -k AGT
+ -t 0.340525926 -s 1 -d -1 -p tcp -e 1040 -c 2 -a 0 -i 2 -k AGT 
- -t 0.340525926 -s 1 -d -1 -p tcp -e 1040 -c 2 -a 0 -i 2 -k AGT
h -t 0.340525926 -s 1 -d -1 -p tcp -e 1040 -c 2 -a 0 -i 2 -k AGT
+ -t 0.340525926 -s 1 -d -1 -p tcp -e 1040 -c 2 -a 0 -i 3 -k AGT 
- -t 0.340525926 -s 1 -d -1 -p tcp -e 1040 -c 2 -a 0 -i 3 -k AGT
h -t 0.340525926 -s 1 -d -1 -p tcp -e 1040 -c 2 -a 0 -i 3 -k AGT
+ -t 0.340525926 -s 1 -d 17 -p tcp -e 1040 -c 2 -a 0 -i 2 -k RTR 
- -t 0.340525926 -s 1 -d 17 -p tcp -e 1040 -c 2 -a 0 -i 2 -k RTR
h -t 0.340525926 -s 1 -d 17 -p tcp -e 1040 -c 2 -a 0 -i 2 -k RTR
+ -t 0.340525926 -s 1 -d 17 -p tcp -e 1040 -c 2 -a 0 -i 3 -k RTR 
- -t 0.340525926 -s 1 -d 17 -p tcp -e 1040 -c 2 -a 0 -i 3 -k RTR
h -t 0.340525926 -s 1 -d 17 -p tcp -e 1040 -c 2 -a 0 -i 3 -k RTR
+ -t 0.350631998 -s 17 -d 9 -p tcp -e 1040 -c 2 -a 0 -i 2 -k RTR 
- -t 0.350631998 -s 17 -d 9 -p tcp -e 1040 -c 2 -a 0 -i 2 -k RTR
h -t 0.350631998 -s 17 -d 9 -p tcp -e 1040 -c 2 -a 0 -i 2 -k RTR
+ -t 0.360698762 -s 17 -d 9 -p tcp -e 1040 -c 2 -a 0 -i 3 -k RTR 
- -t 0.360698762 -s 17 -d 9 -p tcp -e 1040 -c 2 -a 0 -i 3 -k RTR
h -t 0.360698762 -s 17 -d 9 -p tcp -e 1040 -c 2 -a 0 -i 3 -k RTR
+ -t 0.370764550 -s 9 -d 11 -p tcp -e 1040 -c 2 -a 0 -i 2 -k RTR 
- -t 0.370764550 -s 9 -d 11 -p tcp -e 1040 -c 2 -a 0 -i 2 -k RTR
h -t 0.370764550 -s 9 -d 11 -p tcp -e 1040 -c 2 -a 0 -i 2 -k RTR
+ -t 0.380630936 -s 9 -d 11 -p tcp -e 1040 -c 2 -a 0 -i 3 -k RTR 
- -t 0.380630936 -s 9 -d 11 -p tcp -e 1040 -c 2 -a 0 -i 3 -k RTR
h -t 0.380630936 -s 9 -d 11 -p tcp -e 1040 -c 2 -a 0 -i 3 -k RTR
r -t 0.390716715 -s 11 -d 11 -p tcp -e 1040 -c 2 -a 0 -i 2 -k AGT
+ -t 0.390716715 -s 11 -d -1 -p ack -e 40 -c 2 -a 0 -i 4 -k AGT 
- -t 0.390716715 -s 11 -d -1 -p ack -e 40 -c 2 -a 0 -i 4 -k AGT
h -t 0.390716715 -s 11 -d -1 -p ack -e 40 -c 2 -a 0 -i 4 -k AGT
+ -t 0.390716715 -s 11 -d 9 -p ack -e 40 -c 2 -a 0 -i 4 -k RTR 
- -t 0.390716715 -s 11 -d 9 -p ack -e 40 -c 2 -a 0 -i 4 -k RTR
h -t 0.390716715 -s 11 -d 9 -p ack -e 40 -c 2 -a 0 -i 4 -k RTR
+ -t 0.392662494 -s 9 -d 17 -p ack -e 40 -c 2 -a 0 -i 4 -k RTR 
- -t 0.392662494 -s 9 -d 17 -p ack -e 40 -c 2 -a 0 -i 4 -k RTR
h -t 0.392662494 -s 9 -d 17 -p ack -e 40 -c 2 -a 0 -i 4 -k RTR
r -t 0.402568273 -s 11 -d 11 -p tcp -e 1040 -c 2 -a 0 -i 3 -k AGT
+ -t 0.402568273 -s 11 -d -1 -p ack -e 40 -c 2 -a 0 -i 5 -k AGT 
- -t 0.402568273 -s 11 -d -1 -p ack -e 40 -c 2 -a 0 -i 5 -k AGT
h -t 0.402568273 -s 11 -d -1 -p ack -e 40 -c 2 -a 0 -i 5 -k AGT
+ -t 0.402568273 -s 11 -d 9 -p ack -e 40 -c 2 -a 0 -i 5 -k RTR 
- -t 0.402568273 -s 11 -d 9 -p ack -e 40 -c 2 -a 0 -i 5 -k RTR
h -t 0.402568273 -s 11 -d 9 -p ack -e 40 -c 2 -a 0 -i 5 -k RTR
+ -t 0.404414052 -s 9 -d 17 -p ack -e 40 -c 2 -a 0 -i 5 -k RTR 
- -t 0.404414052 -s 9 -d 17 -p ack -e 40 -c 2 -a 0 -i 5 -k RTR
h -t 0.404414052 -s 9 -d 17 -p ack -e 40 -c 2 -a 0 -i 5 -k RTR
+ -t 0.406299840 -s 17 -d 1 -p ack -e 40 -c 2 -a 0 -i 4 -k RTR 
- -t 0.406299840 -s 17 -d 1 -p ack -e 40 -c 2 -a 0 -i 4 -k RTR
h -t 0.406299840 -s 17 -d 1 -p ack -e 40 -c 2 -a 0 -i 4 -k RTR
r -t 0.408740645 -s 3 -d -1 -p AODV -e 48 -c 2 -a 0 -i 0 -k RTR
r -t 0.408740646 -s 2 -d -1 -p AODV -e 48 -c 2 -a 0 -i 0 -k RTR
r -t 0.408740651 -s 4 -d -1 -p AODV -e 48 -c 2 -a 0 -i 0 -k RTR
+ -t 0.410937094 -s 17 -d 1 -p ack -e 40 -c 2 -a 0 -i 5 -k RTR 
- -t 0.410937094 -s 17 -d 1 -p ack -e 40 -c 2 -a 0 -i 5 -k RTR
h -t 0.410937094 -s 17 -d 1 -p ack -e 40 -c 2 -a 0 -i 5 -k RTR
r -t 0.412863167 -s 1 -d 1 -p ack -e 40 -c 2 -a 0 -i 4 -k AGT
+ -t 0.412863167 -s 1 -d -1 -p tcp -e 1040 -c 2 -a 0 -i 6 -k AGT 
- -t 0.412863167 -s 1 -d -1 -p tcp -e 1040 -c 2 -a 0 -i 6 -k AGT
h -t 0.412863167 -s 1 -d -1 -p tcp -e 1040 -c 2 -a 0 -i 6 -k AGT
+ -t 0.412863167 -s 1 -d -1 -p tcp -e 1040 -c 2 -a 0 -i 7 -k AGT 
- -t 0.412863167 -s 1 -d -1 -p tcp -e 1040 -c 2 -a 0 -i 7 -k AGT
h -t 0.412863167 -s 1 -d -1 -p tcp -e 1040 -c 2 -a 0 -i 7 -k AGT
+ -t 0.412863167 -s 1 -d 17 -p tcp -e 1040 -c 2 -a 0 -i 6 -k RTR 
- -t 0.412863167 -s 1 -d 17 -p tcp -e 1040 -c 2 -a 0 -i 6 -k RTR
h -t 0.412863167 -s 1 -d 17 -p tcp -e 1040 -c 2 -a 0 -i 6 -k RTR
+ -t 0.412863167 -s 1 -d 17 -p tcp -e 1040 -c 2 -a 0 -i 7 -k RTR 
- -t 0.412863167 -s 1 -d 17 -p tcp -e 1040 -c 2 -a 0 -i 7 -k RTR
h -t 0.412863167 -s 1 -d 17 -p tcp -e 1040 -c 2 -a 0 -i 7 -k RTR
+ -t 0.414601776 -s 4 -d -1 -p AODV -e 48 -c 2 -a 0 -i 0 -k RTR 
- -t 0.414601776 -s 4 -d -1 -p AODV -e 48 -c 2 -a 0 -i 0 -k RTR
h -t 0.414601776 -s 4 -d -1 -p AODV -e 48 -c 2 -a 0 -i 0 -k RTR
r -t 0.414809930 -s 1 -d 1 -p ack -e 40 -c 2 -a 0 -i 5 -k AGT
+ -t 0.414809930 -s 1 -d -1 -p tcp -e 1040 -c 2 -a 0 -i 8 -k AGT 
- -t 0.414809930 -s 1 -d -1 -p tcp -e 1040 -c 2 -a 0 -i 8 -k AGT
h -t 0.414809930 -s 1 -d -1 -p tcp -e 1040 -c 2 -a 0 -i 8 -k AGT
+ -t 0.414809930 -s 1 -d -1 -p tcp -e 1040 -c 2 -a 0 -i 9 -k AGT 
- -t 0.414809930 -s 1 -d -1 -p tcp -e 1040 -c 2 -a 0 -i 9 -k AGT
h -t 0.414809930 -s 1 -d -1 -p tcp -e 1040 -c 2 -a 0 -i 9 -k AGT
+ -t 0.414809930 -s 1 -d 17 -p tcp -e 1040 -c 2 -a 0 -i 8 -k RTR 
- -t 0.414809930 -s 1 -d 17 -p tcp -e 1040 -c 2 -a 0 -i 8 -k RTR
h -t 0.414809930 -s 1 -d 17 -p tcp -e 1040 -c 2 -a 0 -i 8 -k RTR
+ -t 0.414809930 -s 1 -d 17 -p tcp -e 1040 -c 2 -a 0 -i 9 -k RTR 
- -t 0.414809930 -s 1 -d 17 -p tcp -e 1040 -c 2 -a 0 -i 9 -k RTR
h -t 0.414809930 -s 1 -d 17 -p tcp -e 1040 -c 2 -a 0 -i 9 -k RTR
r -t 0.416150438 -s 0 -d -1 -p AODV -e 48 -c 2 -a 0 -i 0 -k RTR
+ -t 0.422785697 -s 0 -d -1 -p AODV -e 48 -c 2 -a 0 -i 0 -k RTR 
- -t 0.422785697 -s 0 -d -1 -p AODV -e 48 -c 2 -a 0 -i 0 -k RTR
h -t 0.422785697 -s 0 -d -1 -p AODV -e 48 -c 2 -a 0 -i 0 -k RTR
r -t 0.424034343 -s 5 -d -1 -p AODV -e 48 -c 2 -a 0 -i 0 -k RTR
r -t 0.424034360 -s 4 -d -1 -p AODV -e 48 -c 2 -a 0 -i 0 -k RTR
r -t 0.424034371 -s 13 -d -1 -p AODV -e 48 -c 2 -a 0 -i 0 -k RTR
r -t 0.424034400 -s 14 -d -1 -p AODV -e 48 -c 2 -a 0 -i 0 -k RTR
+ -t 0.424036145 -s 14 -d -1 -p AODV -e 48 -c 2 -a 0 -i 0 -k RTR 
- -t 0.424036145 -s 14 -d -1 -p AODV -e 48 -c 2 -a 0 -i 0 -k RTR
h -t 0.424036145 -s 14 -d -1 -p AODV -e 48 -c 2 -a 0 -i 0 -k RTR
+ -t 0.425096002 -s 17 -d 9 -p tcp -e 1040 -c 2 -a 0 -i 6 -k RTR 
- -t 0.425096002 -s 17 -d 9 -p tcp -e 1040 -c 2 -a 0 -i 6 -k RTR
h -t 0.425096002 -s 17 -d 9 -p tcp -e 1040 -c 2 -a 0 -i 6 -k RTR
r -t 0.425204763 -s 13 -d -1 -p AODV -e 48 -c 2 -a 0 -i 0 -k RTR
r -t 0.425204848 -s 0 -d -1 -p AODV -e 48 -c 2 -a 0 -i 0 -k RTR
r -t 0.425204881 -s 5 -d -1 -p AODV -e 48 -c 2 -a 0 -i 0 -k RTR
+ -t 0.427770409 -s 13 -d -1 -p AODV -e 48 -c 2 -a 0 -i 0 -k RTR 
- -t 0.427770409 -s 13 -d -1 -p AODV -e 48 -c 2 -a 0 -i 0 -k RTR
h -t 0.427770409 -s 13 -d -1 -p AODV -e 48 -c 2 -a 0 -i 0 -k RTR
r -t 0.429119027 -s 14 -d -1 -p AODV -e 48 -c 2 -a 0 -i 0 -k RTR
r -t 0.429119083 -s 0 -d -1 -p AODV -e 48 -c 2 -a 0 -i 0 -k RTR
+ -t 0.429495573 -s 5 -d -1 -p AODV -e 48 -c 2 -a 0 -i 0 -k RTR 
- -t 0.429495573 -s 5 -d -1 -p AODV -e 48 -c 2 -a 0 -i 0 -k RTR
h -t 0.429495573 -s 5 -d -1 -p AODV -e 48 -c 2 -a 0 -i 0 -k RTR
+ -t 0.435101791 -s 9 -d 11 -p tcp -e 1040 -c 2 -a 0 -i 6 -k RTR 
- -t 0.435101791 -s 9 -d 11 -p tcp -e 1040 -c 2 -a 0 -i 6 -k RTR
h -t 0.435101791 -s 9 -d 11 -p tcp -e 1040 -c 2 -a 0 -i 6 -k RTR
r -t 0.445147570 -s 11 -d 11 -p tcp -e 1040 -c 2 -a 0 -i 6 -k AGT
+ -t 0.445147570 -s 11 -d -1 -p ack -e 40 -c 2 -a 0 -i 10 -k AGT 
- -t 0.445147570 -s 11 -d -1 -p ack -e 40 -c 2 -a 0 -i 10 -k AGT
h -t 0.445147570 -s 11 -d -1 -p ack -e 40 -c 2 -a 0 -i 10 -k AGT
+ -t 0.445147570 -s 11 -d 9 -p ack -e 40 -c 2 -a 0 -i 10 -k RTR 
- -t 0.445147570 -s 11 -d 9 -p ack -e 40 -c 2 -a 0 -i 10 -k RTR
h -t 0.445147570 -s 11 -d 9 -p ack -e 40 -c 2 -a 0 -i 10 -k RTR
+ -t 0.447113349 -s 9 -d 17 -p ack -e 40 -c 2 -a 0 -i 10 -k RTR 
- -t 0.447113349 -s 9 -d 17 -p ack -e 40 -c 2 -a 0 -i 10 -k RTR
h -t 0.447113349 -s 9 -d 17 -p ack -e 40 -c 2 -a 0 -i 10 -k RTR
+ -t 0.449159138 -s 17 -d 1 -p ack -e 40 -c 2 -a 0 -i 10 -k RTR 
- -t 0.449159138 -s 17 -d 1 -p ack -e 40 -c 2 -a 0 -i 10 -k RTR
h -t 0.449159138 -s 17 -d 1 -p ack -e 40 -c 2 -a 0 -i 10 -k RTR
r -t 0.450897243 -s 6 -d -1 -p AODV -e 48 -c 2 -a 0 -i 0 -k RTR
r -t 0.450897528 -s 0 -d -1 -p AODV -e 48 -c 2 -a 0 -i 0 -k RTR
r -t 0.450897618 -s 14 -d -1 -p AODV -e 48 -c 2 -a 0 -i 0 -k RTR
r -t 0.452894699 -s 1 -d 1 -p ack -e 40 -c 2 -a 0 -i 10 -k AGT
+ -t 0.452894699 -s 1 -d -1 -p tcp -e 1040 -c 2 -a 0 -i 11 -k AGT 
- -t 0.452894699 -s 1 -d -1 -p tcp -e 1040 -c 2 -a 0 -i 11 -k AGT
h -t 0.452894699 -s 1 -d -1 -p tcp -e 1040 -c 2 -a 0 -i 11 -k AGT
+ -t 0.452894699 -s 1 -d -1 -p tcp -e 1040 -c 2 -a 0 -i 12 -k AGT 
- -t 0.452894699 -s 1 -d -1 -p tcp -e 1040 -c 2 -a 0 -i 12 -k AGT
h -t 0.452894699 -s 1 -d -1 -p tcp -e 1040 -c 2 -a 0 -i 12 -k AGT
+ -t 0.452894699 -s 1 -d 17 -p tcp -e 1040 -c 2 -a 0 -i 11 -k RTR 
- -t 0.452894699 -s 1 -d 17 -p tcp -e 1040 -c 2 -a 0 -i 11 -k RTR
h -t 0.452894699 -s 1 -d 17 -p tcp -e 1040 -c 2 -a 0 -i 11 -k RTR
+ -t 0.452894699 -s 1 -d 17 -p tcp -e 1040 -c 2 -a 0 -i 12 -k RTR 
- -t 0.452894699 -s 1 -d 17 -p tcp -e 1040 -c 2 -a 0 -i 12 -k RTR
h -t 0.452894699 -s 1 -d 17 -p tcp -e 1040 -c 2 -a 0 -i 12 -k RTR
+ -t 0.458793527 -s 6 -d -1 -p AODV -e 48 -c 2 -a 0 -i 0 -k RTR 
- -t 0.458793527 -s 6 -d -1 -p AODV -e 48 -c 2 -a 0 -i 0 -k RTR
h -t 0.458793527 -s 6 -d -1 -p AODV -e 48 -c 2 -a 0 -i 0 -k RTR
r -t 0.459741888 -s 5 -d -1 -p AODV -e 48 -c 2 -a 0 -i 0 -k RTR
+ -t 0.464360771 -s 17 -d 9 -p tcp -e 1040 -c 2 -a 0 -i 7 -k RTR 
- -t 0.464360771 -s 17 -d 9 -p tcp -e 1040 -c 2 -a 0 -i 7 -k RTR
h -t 0.464360771 -s 17 -d 9 -p tcp -e 1040 -c 2 -a 0 -i 7 -k RTR
+ -t 0.474706560 -s 9 -d 11 -p tcp -e 1040 -c 2 -a 0 -i 7 -k RTR 
- -t 0.474706560 -s 9 -d 11 -p tcp -e 1040 -c 2 -a 0 -i 7 -k RTR
h -t 0.474706560 -s 9 -d 11 -p tcp -e 1040 -c 2 -a 0 -i 7 -k RTR
r -t 0.484952339 -s 11 -d 11 -p tcp -e 1040 -c 2 -a 0 -i 7 -k AGT
+ -t 0.484952339 -s 11 -d -1 -p ack -e 40 -c 2 -a 0 -i 13 -k AGT 
- -t 0.484952339 -s 11 -d -1 -p ack -e 40 -c 2 -a 0 -i 13 -k AGT
h -t 0.484952339 -s 11 -d -1 -p ack -e 40 -c 2 -a 0 -i 13 -k AGT
+ -t 0.484952339 -s 11 -d 9 -p ack -e 40 -c 2 -a 0 -i 13 -k RTR 
- -t 0.484952339 -s 11 -d 9 -p ack -e 40 -c 2 -a 0 -i 13 -k RTR
h -t 0.484952339 -s 11 -d 9 -p ack -e 40 -c 2 -a 0 -i 13 -k RTR
+ -t 0.486798118 -s 9 -d 17 -p ack -e 40 -c 2 -a 0 -i 13 -k RTR 
- -t 0.486798118 -s 9 -d 17 -p ack -e 40 -c 2 -a 0 -i 13 -k RTR
h -t 0.486798118 -s 9 -d 17 -p ack -e 40 -c 2 -a 0 -i 13 -k RTR
+ -t 0.488663907 -s 17 -d 1 -p ack -e 40 -c 2 -a 0 -i 13 -k RTR 
- -t 0.488663907 -s 17 -d 1 -p ack -e 40 -c 2 -a 0 -i 13 -k RTR
h -t 0.488663907 -s 17 -d 1 -p ack -e 40 -c 2 -a 0 -i 13 -k RTR
r -t 0.490509980 -s 1 -d 1 -p ack -e 40 -c 2 -a 0 -i 13 -k AGT
+ -t 0.490509980 -s 1 -d -1 -p tcp -e 1040 -c 2 -a 0 -i 14 -k AGT 
- -t 0.490509980 -s 1 -d -1 -p tcp -e 1040 -c 2 -a 0 -i 14 -k AGT
h -t 0.490509980 -s 1 -d -1 -p tcp -e 1040 -c 2 -a 0 -i 14 -k AGT
+ -t 0.490509980 -s 1 -d -1 -p tcp -e 1040 -c 2 -a 0 -i 15 -k AGT 
- -t 0.490509980 -s 1 -d -1 -p tcp -e 1040 -c 2 -a 0 -i 15 -k AGT
h -t 0.490509980 -s 1 -d -1 -p tcp -e 1040 -c 2 -a 0 -i 15 -k AGT
+ -t 0.490509980 -s 1 -d 17 -p tcp -e 1040 -c 2 -a 0 -i 14 -k RTR 
- -t 0.490509980 -s 1 -d 17 -p tcp -e 1040 -c 2 -a 0 -i 14 -k RTR
h -t 0.490509980 -s 1 -d 17 -p tcp -e 1040 -c 2 -a 0 -i 14 -k RTR
+ -t 0.490509980 -s 1 -d 17 -p tcp -e 1040 -c 2 -a 0 -i 15 -k RTR 
- -t 0.490509980 -s 1 -d 17 -p tcp -e 1040 -c 2 -a 0 -i 15 -k RTR
h -t 0.490509980 -s 1 -d 17 -p tcp -e 1040 -c 2 -a 0 -i 15 -k RTR
+ -t 0.500376052 -s 17 -d 9 -p tcp -e 1040 -c 2 -a 0 -i 8 -k RTR 
- -t 0.500376052 -s 17 -d 9 -p tcp -e 1040 -c 2 -a 0 -i 8 -k RTR
h -t 0.500376052 -s 17 -d 9 -p tcp -e 1040 -c 2 -a 0 -i 8 -k RTR
+ -t 0.510561841 -s 9 -d 11 -p tcp -e 1040 -c 2 -a 0 -i 8 -k RTR 
- -t 0.510561841 -s 9 -d 11 -p tcp -e 1040 -c 2 -a 0 -i 8 -k RTR
h -t 0.510561841 -s 9 -d 11 -p tcp -e 1040 -c 2 -a 0 -i 8 -k RTR
r -t 0.520767620 -s 11 -d 11 -p tcp -e 1040 -c 2 -a 0 -i 8 -k AGT
+ -t 0.520767620 -s 11 -d -1 -p ack -e 40 -c 2 -a 0 -i 16 -k AGT 
- -t 0.520767620 -s 11 -d -1 -p ack -e 40 -c 2 -a 0 -i 16 -k AGT
h -t 0.520767620 -s 11 -d -1 -p ack -e 40 -c 2 -a 0 -i 16 -k AGT
+ -t 0.520767620 -s 11 -d 9 -p ack -e 40 -c 2 -a 0 -i 16 -k RTR 
- -t 0.520767620 -s 11 -d 9 -p ack -e 40 -c 2 -a 0 -i 16 -k RTR
h -t 0.520767620 -s 11 -d 9 -p ack -e 40 -c 2 -a 0 -i 16 -k RTR
+ -t 0.522913399 -s 9 -d 17 -p ack -e 40 -c 2 -a 0 -i 16 -k RTR 
- -t 0.522913399 -s 9 -d 17 -p ack -e 40 -c 2 -a 0 -i 16 -k RTR
h -t 0.522913399 -s 9 -d 17 -p ack -e 40 -c 2 -a 0 -i 16 -k RTR
+ -t 0.533184757 -s 17 -d 9 -p tcp -e 1040 -c 2 -a 0 -i 9 -k RTR 
- -t 0.533184757 -s 17 -d 9 -p tcp -e 1040 -c 2 -a 0 -i 9 -k RTR
h -t 0.533184757 -s 17 -d 9 -p tcp -e 1040 -c 2 -a 0 -i 9 -k RTR
+ -t 0.543150545 -s 9 -d 11 -p tcp -e 1040 -c 2 -a 0 -i 9 -k RTR 
- -t 0.543150545 -s 9 -d 11 -p tcp -e 1040 -c 2 -a 0 -i 9 -k RTR
h -t 0.543150545 -s 9 -d 11 -p tcp -e 1040 -c 2 -a 0 -i 9 -k RTR
+ -t 0.544996334 -s 17 -d 1 -p ack -e 40 -c 2 -a 0 -i 16 -k RTR 
- -t 0.544996334 -s 17 -d 1 -p ack -e 40 -c 2 -a 0 -i 16 -k RTR
h -t 0.544996334 -s 17 -d 1 -p ack -e 40 -c 2 -a 0 -i 16 -k RTR
r -t 0.554822710 -s 11 -d 11 -p tcp -e 1040 -c 2 -a 0 -i 9 -k AGT
+ -t 0.554822710 -s 11 -d -1 -p ack -e 40 -c 2 -a 0 -i 17 -k AGT 
- -t 0.554822710 -s 11 -d -1 -p ack -e 40 -c 2 -a 0 -i 17 -k AGT
h -t 0.554822710 -s 11 -d -1 -p ack -e 40 -c 2 -a 0 -i 17 -k AGT
+ -t 0.554822710 -s 11 -d 9 -p ack -e 40 -c 2 -a 0 -i 17 -k RTR 
- -t 0.554822710 -s 11 -d 9 -p ack -e 40 -c 2 -a 0 -i 17 -k RTR
h -t 0.554822710 -s 11 -d 9 -p ack -e 40 -c 2 -a 0 -i 17 -k RTR
r -t 0.559129301 -s 1 -d 1 -p ack -e 40 -c 2 -a 0 -i 16 -k AGT
+ -t 0.559129301 -s 1 -d -1 -p tcp -e 1040 -c 2 -a 0 -i 18 -k AGT 
- -t 0.559129301 -s 1 -d -1 -p tcp -e 1040 -c 2 -a 0 -i 18 -k AGT
h -t 0.559129301 -s 1 -d -1 -p tcp -e 1040 -c 2 -a 0 -i 18 -k AGT
+ -t 0.559129301 -s 1 -d -1 -p tcp -e 1040 -c 2 -a 0 -i 19 -k AGT 
- -t 0.559129301 -s 1 -d -1 -p tcp -e 1040 -c 2 -a 0 -i 19 -k AGT
h -t 0.559129301 -s 1 -d -1 -p tcp -e 1040 -c 2 -a 0 -i 19 -k AGT
+ -t 0.559129301 -s 1 -d 17 -p tcp -e 1040 -c 2 -a 0 -i 18 -k RTR 
- -t 0.559129301 -s 1 -d 17 -p tcp -e 1040 -c 2 -a 0 -i 18 -k RTR
h -t 0.559129301 -s 1 -d 17 -p tcp -e 1040 -c 2 -a 0 -i 18 -k RTR
+ -t 0.559129301 -s 1 -d 17 -p tcp -e 1040 -c 2 -a 0 -i 19 -k RTR 
- -t 0.559129301 -s 1 -d 17 -p tcp -e 1040 -c 2 -a 0 -i 19 -k RTR
h -t 0.559129301 -s 1 -d 17 -p tcp -e 1040 -c 2 -a 0 -i 19 -k RTR
+ -t 0.569455374 -s 17 -d 9 -p tcp -e 1040 -c 2 -a 0 -i 11 -k RTR 
- -t 0.569455374 -s 17 -d 9 -p tcp -e 1040 -c 2 -a 0 -i 11 -k RTR
h -t 0.569455374 -s 17 -d 9 -p tcp -e 1040 -c 2 -a 0 -i 11 -k RTR
+ -t 0.579301162 -s 9 -d 11 -p tcp -e 1040 -c 2 -a 0 -i 11 -k RTR 
- -t 0.579301162 -s 9 -d 11 -p tcp -e 1040 -c 2 -a 0 -i 11 -k RTR
h -t 0.579301162 -s 9 -d 11 -p tcp -e 1040 -c 2 -a 0 -i 11 -k RTR
r -t 0.589366942 -s 11 -d 11 -p tcp -e 1040 -c 2 -a 0 -i 11 -k AGT
+ -t 0.589366942 -s 11 -d -1 -p ack -e 40 -c 2 -a 0 -i 20 -k AGT 
- -t 0.589366942 -s 11 -d -1 -p ack -e 40 -c 2 -a 0 -i 20 -k AGT
h -t 0.589366942 -s 11 -d -1 -p ack -e 40 -c 2 -a 0 -i 20 -k AGT
+ -t 0.589366942 -s 11 -d 9 -p ack -e 40 -c 2 -a 0 -i 20 -k RTR 
- -t 0.589366942 -s 11 -d 9 -p ack -e 40 -c 2 -a 0 -i 20 -k RTR
h -t 0.589366942 -s 11 -d 9 -p ack -e 40 -c 2 -a 0 -i 20 -k RTR
+ -t 0.591392721 -s 9 -d 17 -p ack -e 40 -c 2 -a 0 -i 17 -k RTR 
- -t 0.591392721 -s 9 -d 17 -p ack -e 40 -c 2 -a 0 -i 17 -k RTR
h -t 0.591392721 -s 9 -d 17 -p ack -e 40 -c 2 -a 0 -i 17 -k RTR
+ -t 0.593219093 -s 9 -d 17 -p ack -e 40 -c 2 -a 0 -i 20 -k RTR 
- -t 0.593219093 -s 9 -d 17 -p ack -e 40 -c 2 -a 0 -i 20 -k RTR
h -t 0.593219093 -s 9 -d 17 -p ack -e 40 -c 2 -a 0 -i 20 -k RTR
+ -t 0.595224881 -s 17 -d 1 -p ack -e 40 -c 2 -a 0 -i 17 -k RTR 
- -t 0.595224881 -s 17 -d 1 -p ack -e 40 -c 2 -a 0 -i 17 -k RTR
h -t 0.595224881 -s 17 -d 1 -p ack -e 40 -c 2 -a 0 -i 17 -k RTR
r -t 0.597210954 -s 1 -d 1 -p ack -e 40 -c 2 -a 0 -i 17 -k AGT
+ -t 0.597210954 -s 1 -d -1 -p tcp -e 1040 -c 2 -a 0 -i 21 -k AGT 
- -t 0.597210954 -s 1 -d -1 -p tcp -e 1040 -c 2 -a 0 -i 21 -k AGT
h -t 0.597210954 -s 1 -d -1 -p tcp -e 1040 -c 2 -a 0 -i 21 -k AGT
+ -t 0.597210954 -s 1 -d -1 -p tcp -e 1040 -c 2 -a 0 -i 22 -k AGT 
- -t 0.597210954 -s 1 -d -1 -p tcp -e 1040 -c 2 -a 0 -i 22 -k AGT
h -t 0.597210954 -s 1 -d -1 -p tcp -e 1040 -c 2 -a 0 -i 22 -k AGT
+ -t 0.597210954 -s 1 -d 17 -p tcp -e 1040 -c 2 -a 0 -i 21 -k RTR 
- -t 0.597210954 -s 1 -d 17 -p tcp -e 1040 -c 2 -a 0 -i 21 -k RTR
h -t 0.597210954 -s 1 -d 17 -p tcp -e 1040 -c 2 -a 0 -i 21 -k RTR
+ -t 0.597210954 -s 1 -d 17 -p tcp -e 1040 -c 2 -a 0 -i 22 -k RTR 
- -t 0.597210954 -s 1 -d 17 -p tcp -e 1040 -c 2 -a 0 -i 22 -k RTR
h -t 0.597210954 -s 1 -d 17 -p tcp -e 1040 -c 2 -a 0 -i 22 -k RTR
+ -t 0.607057026 -s 17 -d 9 -p tcp -e 1040 -c 2 -a 0 -i 12 -k RTR 
- -t 0.607057026 -s 17 -d 9 -p tcp -e 1040 -c 2 -a 0 -i 12 -k RTR
h -t 0.607057026 -s 17 -d 9 -p tcp -e 1040 -c 2 -a 0 -i 12 -k RTR
+ -t 0.616883789 -s 17 -d 9 -p tcp -e 1040 -c 2 -a 0 -i 14 -k RTR 
- -t 0.616883789 -s 17 -d 9 -p tcp -e 1040 -c 2 -a 0 -i 14 -k RTR
h -t 0.616883789 -s 17 -d 9 -p tcp -e 1040 -c 2 -a 0 -i 14 -k RTR
+ -t 0.626830552 -s 17 -d 9 -p tcp -e 1040 -c 2 -a 0 -i 15 -k RTR 
- -t 0.626830552 -s 17 -d 9 -p tcp -e 1040 -c 2 -a 0 -i 15 -k RTR
h -t 0.626830552 -s 17 -d 9 -p tcp -e 1040 -c 2 -a 0 -i 15 -k RTR
+ -t 0.636756341 -s 9 -d 11 -p tcp -e 1040 -c 2 -a 0 -i 12 -k RTR 
- -t 0.636756341 -s 9 -d 11 -p tcp -e 1040 -c 2 -a 0 -i 12 -k RTR
h -t 0.636756341 -s 9 -d 11 -p tcp -e 1040 -c 2 -a 0 -i 12 -k RTR
+ -t 0.646742726 -s 9 -d 11 -p tcp -e 1040 -c 2 -a 0 -i 14 -k RTR 
- -t 0.646742726 -s 9 -d 11 -p tcp -e 1040 -c 2 -a 0 -i 14 -k RTR
h -t 0.646742726 -s 9 -d 11 -p tcp -e 1040 -c 2 -a 0 -i 14 -k RTR
+ -t 0.648648515 -s 17 -d 1 -p ack -e 40 -c 2 -a 0 -i 20 -k RTR 
- -t 0.648648515 -s 17 -d 1 -p ack -e 40 -c 2 -a 0 -i 20 -k RTR
h -t 0.648648515 -s 17 -d 1 -p ack -e 40 -c 2 -a 0 -i 20 -k RTR
+ -t 0.658805277 -s 17 -d 9 -p tcp -e 1040 -c 2 -a 0 -i 18 -k RTR 
- -t 0.658805277 -s 17 -d 9 -p tcp -e 1040 -c 2 -a 0 -i 18 -k RTR
h -t 0.658805277 -s 17 -d 9 -p tcp -e 1040 -c 2 -a 0 -i 18 -k RTR
+ -t 0.668751066 -s 9 -d 11 -p tcp -e 1040 -c 2 -a 0 -i 15 -k RTR 
- -t 0.668751066 -s 9 -d 11 -p tcp -e 1040 -c 2 -a 0 -i 15 -k RTR
h -t 0.668751066 -s 9 -d 11 -p tcp -e 1040 -c 2 -a 0 -i 15 -k RTR
r -t 0.678796845 -s 11 -d 11 -p tcp -e 1040 -c 2 -a 0 -i 12 -k AGT
+ -t 0.678796845 -s 11 -d -1 -p ack -e 40 -c 2 -a 0 -i 23 -k AGT 
- -t 0.678796845 -s 11 -d -1 -p ack -e 40 -c 2 -a 0 -i 23 -k AGT
h -t 0.678796845 -s 11 -d -1 -p ack -e 40 -c 2 -a 0 -i 23 -k AGT
+ -t 0.678796845 -s 11 -d 9 -p ack -e 40 -c 2 -a 0 -i 23 -k RTR 
- -t 0.678796845 -s 11 -d 9 -p ack -e 40 -c 2 -a 0 -i 23 -k RTR
h -t 0.678796845 -s 11 -d 9 -p ack -e 40 -c 2 -a 0 -i 23 -k RTR
r -t 0.688663217 -s 11 -d 11 -p tcp -e 1040 -c 2 -a 0 -i 14 -k AGT
+ -t 0.688663217 -s 11 -d -1 -p ack -e 40 -c 2 -a 0 -i 24 -k AGT 
- -t 0.688663217 -s 11 -d -1 -p ack -e 40 -c 2 -a 0 -i 24 -k AGT
h -t 0.688663217 -s 11 -d -1 -p ack -e 40 -c 2 -a 0 -i 24 -k AGT
+ -t 0.688663217 -s 11 -d 9 -p ack -e 40 -c 2 -a 0 -i 24 -k RTR 
- -t 0.688663217 -s 11 -d 9 -p ack -e 40 -c 2 -a 0 -i 24 -k RTR
h -t 0.688663217 -s 11 -d 9 -p ack -e 40 -c 2 -a 0 -i 24 -k RTR
+ -t 0.698875017 -s 17 -d 9 -p tcp -e 1040 -c 2 -a 0 -i 19 -k RTR 
- -t 0.698875017 -s 17 -d 9 -p tcp -e 1040 -c 2 -a 0 -i 19 -k RTR
h -t 0.698875017 -s 17 -d 9 -p tcp -e 1040 -c 2 -a 0 -i 19 -k RTR
r -t 0.708851390 -s 11 -d 11 -p tcp -e 1040 -c 2 -a 0 -i 15 -k AGT
+ -t 0.708851390 -s 11 -d -1 -p ack -e 40 -c 2 -a 0 -i 25 -k AGT 
- -t 0.708851390 -s 11 -d -1 -p ack -e 40 -c 2 -a 0 -i 25 -k AGT
h -t 0.708851390 -s 11 -d -1 -p ack -e 40 -c 2 -a 0 -i 25 -k AGT