M 0.0 nn 20 x 600 y 600 rp 
M 0.0 prop Propagation/TwoRayGround ant Antenna/OmniAntenna
s 0.300000000 _1_ AGT  --- 0 tcp 40 [0 0 0 0] ------- [1:0 11:0 32 0] [0 0] 0 0
r 0.300000000 _1_ RTR  --- 0 tcp 40 [0 0 0 0] ------- [1:0 11:0 32 0] [0 0] 0 0
s 0.300000000 _1_ RTR  --- 0 AODV 48 [0 0 0 0] ------- [1:255 -1:255 30 0] [0x2 1 1 [11 0] [1 4]] (REQUEST)
r 0.300988492 _15_ RTR  --- 0 AODV 48 [0 ffffffff 1 800] ------- [1:255 -1:255 30 0] [0x2 1 1 [11 0] [1 4]] (REQUEST)
r 0.300988538 _16_ RTR  --- 0 AODV 48 [0 ffffffff 1 800] ------- [1:255 -1:255 30 0] [0x2 1 1 [11 0] [1 4]] (REQUEST)
r 0.300988613 _3_ RTR  --- 0 AODV 48 [0 ffffffff 1 800] ------- [1:255 -1:255 30 0] [0x2 1 1 [11 0] [1 4]] (REQUEST)
r 0.300988691 _17_ RTR  --- 0 AODV 48 [0 ffffffff 1 800] ------- [1:255 -1:255 30 0] [0x2 1 1 [11 0] [1 4]] (REQUEST)
s 0.301869719 _15_ RTR  --- 0 AODV 48 [0 ffffffff 1 800] ------- [15:255 -1:255 29 0] [0x2 2 1 [11 0] [1 4]] (REQUEST)
r 0.303018193 _8_ RTR  --- 0 AODV 48 [0 ffffffff f 800] ------- [15:255 -1:255 29 0] [0x2 2 1 [11 0] [1 4]] (REQUEST)
r 0.303018211 _1_ RTR  --- 0 AODV 48 [0 ffffffff f 800] ------- [15:255 -1:255 29 0] [0x2 2 1 [11 0] [1 4]] (REQUEST)
r 0.303018227 _16_ RTR  --- 0 AODV 48 [0 ffffffff f 800] ------- [15:255 -1:255 29 0] [0x2 2 1 [11 0] [1 4]] (REQUEST)
r 0.303018248 _17_ RTR  --- 0 AODV 48 [0 ffffffff f 800] ------- [15:255 -1:255 29 0] [0x2 2 1 [11 0] [1 4]] (REQUEST)
r 0.303018314 _19_ RTR  --- 0 AODV 48 [0 ffffffff f 800] ------- [15:255 -1:255 29 0] [0x2 2 1 [11 0] [1 4]] (REQUEST)
r 0.303018480 _18_ RTR  --- 0 AODV 48 [0 ffffffff f 800] ------- [15:255 -1:255 29 0] [0x2 2 1 [11 0] [1 4]] (REQUEST)
s 0.304118308 _17_ RTR  --- 0 AODV 48 [0 ffffffff 1 800] ------- [17:255 -1:255 29 0] [0x2 2 1 [11 0] [1 4]] (REQUEST)
r 0.305106489 _16_ RTR  --- 0 AODV 48 [0 ffffffff 11 800] ------- [17:255 -1:255 29 0] [0x2 2 1 [11 0] [1 4]] (REQUEST)
r 0.305106555 _19_ RTR  --- 0 AODV 48 [0 ffffffff 11 800] ------- [17:255 -1:255 29 0] [0x2 2 1 [11 0] [1 4]] (REQUEST)
r 0.305106749 _8_ RTR  --- 0 AODV 48 [0 ffffffff 11 800] ------- [17:255 -1:255 29 0] [0x2 2 1 [11 0] [1 4]] (REQUEST)
r 0.305106837 _15_ RTR  --- 0 AODV 48 [0 ffffffff 11 800] ------- [17:255 -1:255 29 0] [0x2 2 1 [11 0] [1 4]] (REQUEST)
r 0.305106863 _2_ RTR  --- 0 AODV 48 [0 ffffffff 11 800] ------- [17:255 -1:255 29 0] [0x2 2 1 [11 0] [1 4]] (REQUEST)
r 0.305106905 _9_ RTR  --- 0 AODV 48 [0 ffffffff 11 800] ------- [17:255 -1:255 29 0] [0x2 2 1 [11 0] [1 4]] (REQUEST)
r 0.305106999 _1_ RTR  --- 0 AODV 48 [0 ffffffff 11 800] ------- [17:255 -1:255 29 0] [0x2 2 1 [11 0] [1 4]] (REQUEST)
r 0.305107022 _3_ RTR  --- 0 AODV 48 [0 ffffffff 11 800] ------- [17:255 -1:255 29 0] [0x2 2 1 [11 0] [1 4]] (REQUEST)
s 0.305400272 _16_ RTR  --- 0 AODV 48 [0 ffffffff 1 800] ------- [16:255 -1:255 29 0] [0x2 2 1 [11 0] [1 4]] (REQUEST)
s 0.306109105 _19_ RTR  --- 0 AODV 48 [0 ffffffff f 800] ------- [19:255 -1:255 28 0] [0x2 3 1 [11 0] [1 4]] (REQUEST)
s 0.306244987 _9_ RTR  --- 0 AODV 48 [0 ffffffff 11 800] ------- [9:255 -1:255 28 0] [0x2 3 1 [11 0] [1 4]] (REQUEST)
r 0.306588453 _17_ RTR  --- 0 AODV 48 [0 ffffffff 10 800] ------- [16:255 -1:255 29 0] [0x2 2 1 [11 0] [1 4]] (REQUEST)
r 0.306588696 _19_ RTR  --- 0 AODV 48 [0 ffffffff 10 800] ------- [16:255 -1:255 29 0] [0x2 2 1 [11 0] [1 4]] (REQUEST)
r 0.306588780 _15_ RTR  --- 0 AODV 48 [0 ffffffff 10 800] ------- [16:255 -1:255 29 0] [0x2 2 1 [11 0] [1 4]] (REQUEST)
r 0.306588811 _1_ RTR  --- 0 AODV 48 [0 ffffffff 10 800] ------- [16:255 -1:255 29 0] [0x2 2 1 [11 0] [1 4]] (REQUEST)
r 0.306588825 _3_ RTR  --- 0 AODV 48 [0 ffffffff 10 800] ------- [16:255 -1:255 29 0] [0x2 2 1 [11 0] [1 4]] (REQUEST)
r 0.306588846 _2_ RTR  --- 0 AODV 48 [0 ffffffff 10 800] ------- [16:255 -1:255 29 0] [0x2 2 1 [11 0] [1 4]] (REQUEST)
r 0.306588848 _8_ RTR  --- 0 AODV 48 [0 ffffffff 10 800] ------- [16:255 -1:255 29 0] [0x2 2 1 [11 0] [1 4]] (REQUEST)
r 0.306589039 _9_ RTR  --- 0 AODV 48 [0 ffffffff 10 800] ------- [16:255 -1:255 29 0] [0x2 2 1 [11 0] [1 4]] (REQUEST)
r 0.307646943 _17_ RTR  --- 0 AODV 48 [0 ffffffff 13 800] ------- [19:255 -1:255 28 0] [0x2 3 1 [11 0] [1 4]] (REQUEST)
r 0.307646975 _8_ RTR  --- 0 AODV 48 [0 ffffffff 13 800] ------- [19:255 -1:255 28 0] [0x2 3 1 [11 0] [1 4]] (REQUEST)
r 0.307647118 _9_ RTR  --- 0 AODV 48 [0 ffffffff 13 800] ------- [19:255 -1:255 28 0] [0x2 3 1 [11 0] [1 4]] (REQUEST)
r 0.307647121 _16_ RTR  --- 0 AODV 48 [0 ffffffff 13 800] ------- [19:255 -1:255 28 0] [0x2 3 1 [11 0] [1 4]] (REQUEST)
r 0.307647292 _15_ RTR  --- 0 AODV 48 [0 ffffffff 13 800] ------- [19:255 -1:255 28 0] [0x2 3 1 [11 0] [1 4]] (REQUEST)
r 0.307647325 _7_ RTR  --- 0 AODV 48 [0 ffffffff 13 800] ------- [19:255 -1:255 28 0] [0x2 3 1 [11 0] [1 4]] (REQUEST)
r 0.307647364 _2_ RTR  --- 0 AODV 48 [0 ffffffff 13 800] ------- [19:255 -1:255 28 0] [0x2 3 1 [11 0] [1 4]] (REQUEST)
r 0.308865541 _19_ RTR  --- 0 AODV 48 [0 ffffffff 9 800] ------- [9:255 -1:255 28 0] [0x2 3 1 [11 0] [1 4]] (REQUEST)
r 0.308865656 _7_ RTR  --- 0 AODV 48 [0 ffffffff 9 800] ------- [9:255 -1:255 28 0] [0x2 3 1 [11 0] [1 4]] (REQUEST)
r 0.308865708 _10_ RTR  --- 0 AODV 48 [0 ffffffff 9 800] ------- [9:255 -1:255 28 0] [0x2 3 1 [11 0] [1 4]] (REQUEST)
r 0.308865711 _11_ RTR  --- 0 AODV 48 [0 ffffffff 9 800] ------- [9:255 -1:255 28 0] [0x2 3 1 [11 0] [1 4]] (REQUEST)
s 0.308865711 _11_ RTR  --- 0 AODV 44 [0 0 0 0] ------- [11:255 1:255 30 9] [0x4 1 [11 4] 10.000000] (REPLY)
r 0.308865715 _17_ RTR  --- 0 AODV 48 [0 ffffffff 9 800] ------- [9:255 -1:255 28 0] [0x2 3 1 [11 0] [1 4]] (REQUEST)
r 0.308865736 _8_ RTR  --- 0 AODV 48 [0 ffffffff 9 800] ------- [9:255 -1:255 28 0] [0x2 3 1 [11 0] [1 4]] (REQUEST)
r 0.308865785 _2_ RTR  --- 0 AODV 48 [0 ffffffff 9 800] ------- [9:255 -1:255 28 0] [0x2 3 1 [11 0] [1 4]] (REQUEST)
r 0.308865885 _16_ RTR  --- 0 AODV 48 [0 ffffffff 9 800] ------- [9:255 -1:255 28 0] [0x2 3 1 [11 0] [1 4]] (REQUEST)
s 0.308980168 _3_ RTR  --- 0 AODV 48 [0 ffffffff 1 800] ------- [3:255 -1:255 29 0] [0x2 2 1 [11 0] [1 4]] (REQUEST)
s 0.309406845 _8_ RTR  --- 0 AODV 48 [0 ffffffff f 800] ------- [8:255 -1:255 28 0] [0x2 3 1 [11 0] [1 4]] (REQUEST)
s 0.311134735 _7_ RTR  --- 0 AODV 48 [0 ffffffff 13 800] ------- [7:255 -1:255 27 0] [0x2 4 1 [11 0] [1 4]] (REQUEST)
s 0.311381715 _18_ RTR  --- 0 AODV 48 [0 ffffffff f 800] ------- [18:255 -1:255 28 0] [0x2 3 1 [11 0] [1 4]] (REQUEST)
s 0.311507540 _2_ RTR  --- 0 AODV 48 [0 ffffffff 11 800] ------- [2:255 -1:255 28 0] [0x2 3 1 [11 0] [1 4]] (REQUEST)
r 0.312948409 _17_ RTR  --- 0 AODV 48 [0 ffffffff 2 800] ------- [2:255 -1:255 28 0] [0x2 3 1 [11 0] [1 4]] (REQUEST)
r 0.312948428 _16_ RTR  --- 0 AODV 48 [0 ffffffff 2 800] ------- [2:255 -1:255 28 0] [0x2 3 1 [11 0] [1 4]] (REQUEST)
r 0.312948521 _9_ RTR  --- 0 AODV 48 [0 ffffffff 2 800] ------- [2:255 -1:255 28 0] [0x2 3 1 [11 0] [1 4]] (REQUEST)
r 0.312948522 _19_ RTR  --- 0 AODV 48 [0 ffffffff 2 800] ------- [2:255 -1:255 28 0] [0x2 3 1 [11 0] [1 4]] (REQUEST)
r 0.312948534 _3_ RTR  --- 0 AODV 48 [0 ffffffff 2 800] ------- [2:255 -1:255 28 0] [0x2 3 1 [11 0] [1 4]] (REQUEST)
r 0.312948625 _11_ RTR  --- 0 AODV 48 [0 ffffffff 2 800] ------- [2:255 -1:255 28 0] [0x2 3 1 [11 0] [1 4]] (REQUEST)
r 0.312948629 _12_ RTR  --- 0 AODV 48 [0 ffffffff 2 800] ------- [2:255 -1:255 28 0] [0x2 3 1 [11 0] [1 4]] (REQUEST)
s 0.312952565 _10_ RTR  --- 0 AODV 48 [0 ffffffff 9 800] ------- [10:255 -1:255 27 0] [0x2 4 1 [11 0] [1 4]] (REQUEST)
r 0.314632404 _9_ RTR  --- 0 AODV 44 [13a 9 b 800] ------- [11:255 1:255 30 9] [0x4 1 [11 4] 10.000000] (REPLY)
f 0.314632404 _9_ RTR  --- 0 AODV 44 [13a 9 b 800] ------- [11:255 1:255 29 17] [0x4 2 [11 4] 10.000000] (REPLY)
r 0.315925397 _11_ RTR  --- 0 AODV 48 [0 ffffffff a 800] ------- [10:255 -1:255 27 0] [0x2 4 1 [11 0] [1 4]] (REQUEST)
r 0.315925583 _9_ RTR  --- 0 AODV 48 [0 ffffffff a 800] ------- [10:255 -1:255 27 0] [0x2 4 1 [11 0] [1 4]] (REQUEST)
r 0.315925807 _7_ RTR  --- 0 AODV 48 [0 ffffffff a 800] ------- [10:255 -1:255 27 0] [0x2 4 1 [11 0] [1 4]] (REQUEST)
r 0.317722479 _19_ RTR  --- 0 AODV 48 [0 ffffffff 8 800] ------- [8:255 -1:255 28 0] [0x2 3 1 [11 0] [1 4]] (REQUEST)
r 0.317722641 _17_ RTR  --- 0 AODV 48 [0 ffffffff 8 800] ------- [8:255 -1:255 28 0] [0x2 3 1 [11 0] [1 4]] (REQUEST)
r 0.317722674 _15_ RTR  --- 0 AODV 48 [0 ffffffff 8 800] ------- [8:255 -1:255 28 0] [0x2 3 1 [11 0] [1 4]] (REQUEST)
r 0.317722767 _7_ RTR  --- 0 AODV 48 [0 ffffffff 8 800] ------- [8:255 -1:255 28 0] [0x2 3 1 [11 0] [1 4]] (REQUEST)
r 0.317722776 _16_ RTR  --- 0 AODV 48 [0 ffffffff 8 800] ------- [8:255 -1:255 28 0] [0x2 3 1 [11 0] [1 4]] (REQUEST)
r 0.317722789 _18_ RTR  --- 0 AODV 48 [0 ffffffff 8 800] ------- [8:255 -1:255 28 0] [0x2 3 1 [11 0] [1 4]] (REQUEST)
r 0.317722817 _9_ RTR  --- 0 AODV 48 [0 ffffffff 8 800] ------- [8:255 -1:255 28 0] [0x2 3 1 [11 0] [1 4]] (REQUEST)
r 0.318981304 _9_ RTR  --- 0 AODV 48 [0 ffffffff 7 800] ------- [7:255 -1:255 27 0] [0x2 4 1 [11 0] [1 4]] (REQUEST)
r 0.318981580 _10_ RTR  --- 0 AODV 48 [0 ffffffff 7 800] ------- [7:255 -1:255 27 0] [0x2 4 1 [11 0] [1 4]] (REQUEST)
s 0.321998084 _12_ RTR  --- 0 AODV 48 [0 ffffffff 2 800] ------- [12:255 -1:255 27 0] [0x2 4 1 [11 0] [1 4]] (REQUEST)
r 0.322739383 _17_ RTR  --- 0 AODV 44 [13a 11 9 800] ------- [11:255 1:255 29 17] [0x4 2 [11 4] 10.000000] (REPLY)
f 0.322739383 _17_ RTR  --- 0 AODV 44 [13a 11 9 800] ------- [11:255 1:255 28 1] [0x4 3 [11 4] 10.000000] (REPLY)
r 0.326686413 _16_ RTR  --- 0 AODV 48 [0 ffffffff 3 800] ------- [3:255 -1:255 29 0] [0x2 2 1 [11 0] [1 4]] (REQUEST)
r 0.326686473 _1_ RTR  --- 0 AODV 48 [0 ffffffff 3 800] ------- [3:255 -1:255 29 0] [0x2 2 1 [11 0] [1 4]] (REQUEST)
r 0.326686539 _2_ RTR  --- 0 AODV 48 [0 ffffffff 3 800] ------- [3:255 -1:255 29 0] [0x2 2 1 [11 0] [1 4]] (REQUEST)
r 0.326686573 _17_ RTR  --- 0 AODV 48 [0 ffffffff 3 800] ------- [3:255 -1:255 29 0] [0x2 2 1 [11 0] [1 4]] (REQUEST)
r 0.326686633 _12_ RTR  --- 0 AODV 48 [0 ffffffff 3 800] ------- [3:255 -1:255 29 0] [0x2 2 1 [11 0] [1 4]] (REQUEST)
r 0.328310646 _1_ RTR  --- 0 AODV 44 [13a 1 11 800] ------- [11:255 1:255 28 1] [0x4 3 [11 4] 10.000000] (REPLY)
s 0.328310646 _1_ RTR  --- 0 tcp 40 [0 0 0 0] ------- [1:0 11:0 30 17] [0 0] 0 0
r 0.330316718 _17_ RTR  --- 0 tcp 40 [13a 11 1 800] ------- [1:0 11:0 30 17] [0 0] 1 0
f 0.330316718 _17_ RTR  --- 0 tcp 40 [13a 11 1 800] ------- [1:0 11:0 29 9] [0 0] 1 0
r 0.332362507 _9_ RTR  --- 0 tcp 40 [13a 9 11 800] ------- [1:0 11:0 29 9] [0 0] 2 0
f 0.332362507 _9_ RTR  --- 0 tcp 40 [13a 9 11 800] ------- [1:0 11:0 28 11] [0 0] 2 0
r 0.334288286 _11_ AGT  --- 0 tcp 40 [13a b 9 800] ------- [1:0 11:0 28 11] [0 0] 3 0
s 0.334288286 _11_ AGT  --- 1 ack 40 [0 0 0 0] ------- [11:0 1:0 32 0] [0 0] 0 0
r 0.334288286 _11_ RTR  --- 1 ack 40 [0 0 0 0] ------- [11:0 1:0 32 0] [0 0] 0 0
s 0.334288286 _11_ RTR  --- 1 ack 40 [0 0 0 0] ------- [11:0 1:0 30 9] [0 0] 0 0
r 0.336334065 _9_ RTR  --- 1 ack 40 [13a 9 b 800] ------- [11:0 1:0 30 9] [0 0] 1 0
f 0.336334065 _9_ RTR  --- 1 ack 40 [13a 9 b 800] ------- [11:0 1:0 29 17] [0 0] 1 0
r 0.338459854 _17_ RTR  --- 1 ack 40 [13a 11 9 800] ------- [11:0 1:0 29 17] [0 0] 2 0
f 0.338459854 _17_ RTR  --- 1 ack 40 [13a 11 9 800] ------- [11:0 1:0 28 1] [0 0] 2 0
r 0.340525926 _1_ AGT  --- 1 ack 40 [13a 1 11 800] ------- [11:0 1:0 28 1] [0 0] 3 0
s 0.340525926 _1_ AGT  --- 2 tcp 1040 [0 0 0 0] ------- [1:0 11:0 32 0] [1 0] 0 0
r 0.340525926 _1_ RTR  --- 2 tcp 1040 [0 0 0 0] ------- [1:0 11:0 32 0] [1 0] 0 0
s 0.340525926 _1_ AGT  --- 3 tcp 1040 [0 0 0 0] ------- [1:0 11:0 32 0] [2 0] 0 0
r 0.340525926 _1_ RTR  --- 3 tcp 1040 [0 0 0 0] ------- [1:0 11:0 32 0] [2 0] 0 0
s 0.340525926 _1_ RTR  --- 2 tcp 1040 [0 0 0 0] ------- [1:0 11:0 30 17] [1 0] 0 0
s 0.340525926 _1_ RTR  --- 3 tcp 1040 [0 0 0 0] ------- [1:0 11:0 30 17] [2 0] 0 0
r 0.350631998 _17_ RTR  --- 2 tcp 1040 [13a 11 1 800] ------- [1:0 11:0 30 17] [1 0] 1 0
f 0.350631998 _17_ RTR  --- 2 tcp 1040 [13a 11 1 800] ------- [1:0 11:0 29 9] [1 0] 1 0
r 0.360698762 _17_ RTR  --- 3 tcp 1040 [13a 11 1 800] ------- [1:0 11:0 30 17] [2 0] 1 0
f 0.360698762 _17_ RTR  --- 3 tcp 1040 [13a 11 1 800] ------- [1:0 11:0 29 9] [2 0] 1 0
r 0.370764550 _9_ RTR  --- 2 tcp 1040 [13a 9 11 800] ------- [1:0 11:0 29 9] [1 0] 2 0
f 0.370764550 _9_ RTR  --- 2 tcp 1040 [13a 9 11 800] ------- [1:0 11:0 28 11] [1 0] 2 0
r 0.380630936 _9_ RTR  --- 3 tcp 1040 [13a 9 11 800] ------- [1:0 11:0 29 9] [2 0] 2 0
f 0.380630936 _9_ RTR  --- 3 tcp 1040 [13a 9 11 800] ------- [1:0 11:0 28 11] [2 0] 2 0
r 0.390716715 _11_ AGT  --- 2 tcp 1040 [13a b 9 800] ------- [1:0 11:0 28 11] [1 0] 3 0
s 0.390716715 _11_ AGT  --- 4 ack 40 [0 0 0 0] ------- [11:0 1:0 32 0] [1 0] 0 0
r 0.390716715 _11_ RTR  --- 4 ack 40 [0 0 0 0] ------- [11:0 1:0 32 0] [1 0] 0 0
s 0.390716715 _11_ RTR  --- 4 ack 40 [0 0 0 0] ------- [11:0 1:0 30 9] [1 0] 0 0
r 0.392662494 _9_ RTR  --- 4 ack 40 [13a 9 b 800] ------- [11:0 1:0 30 9] [1 0] 1 0
f 0.392662494 _9_ RTR  --- 4 ack 40 [13a 9 b 800] ------- [11:0 1:0 29 17] [1 0] 1 0
r 0.402568273 _11_ AGT  --- 3 tcp 1040 [13a b 9 800] ------- [1:0 11:0 28 11] [2 0] 3 0
s 0.402568273 _11_ AGT  --- 5 ack 40 [0 0 0 0] ------- [11:0 1:0 32 0] [2 0] 0 0
r 0.402568273 _11_ RTR  --- 5 ack 40 [0 0 0 0] ------- [11:0 1:0 32 0] [2 0] 0 0
s 0.402568273 _11_ RTR  --- 5 ack 40 [0 0 0 0] ------- [11:0 1:0 30 9] [2 0] 0 0
r 0.404414052 _9_ RTR  --- 5 ack 40 [13a 9 b 800] ------- [11:0 1:0 30 9] [2 0] 1 0
f 0.404414052 _9_ RTR  --- 5 ack 40 [13a 9 b 800] ------- [11:0 1:0 29 17] [2 0] 1 0
r 0.406299840 _17_ RTR  --- 4 ack 40 [13a 11 9 800] ------- [11:0 1:0 29 17] [1 0] 2 0
f 0.406299840 _17_ RTR  --- 4 ack 40 [13a 11 9 800] ------- [11:0 1:0 28 1] [1 0] 2 0
r 0.408740645 _3_ RTR  --- 0 AODV 48 [0 ffffffff c 800] ------- [12:255 -1:255 27 0] [0x2 4 1 [11 0] [1 4]] (REQUEST)
r 0.408740646 _2_ RTR  --- 0 AODV 48 [0 ffffffff c 800] ------- [12:255 -1:255 27 0] [0x2 4 1 [11 0] [1 4]] (REQUEST)
r 0.408740651 _4_ RTR  --- 0 AODV 48 [0 ffffffff c 800] ------- [12:255 -1:255 27 0] [0x2 4 1 [11 0] [1 4]] (REQUEST)
r 0.410937094 _17_ RTR  --- 5 ack 40 [13a 11 9 800] ------- [11:0 1:0 29 17] [2 0] 2 0
f 0.410937094 _17_ RTR  --- 5 ack 40 [13a 11 9 800] ------- [11:0 1:0 28 1] [2 0] 2 0
r 0.412863167 _1_ AGT  --- 4 ack 40 [13a 1 11 800] ------- [11:0 1:0 28 1] [1 0] 3 0
s 0.412863167 _1_ AGT  --- 6 tcp 1040 [0 0 0 0] ------- [1:0 11:0 32 0] [3 0] 0 0
r 0.412863167 _1_ RTR  --- 6 tcp 1040 [0 0 0 0] ------- [1:0 11:0 32 0] [3 0] 0 0
s 0.412863167 _1_ AGT  --- 7 tcp 1040 [0 0 0 0] ------- [1:0 11:0 32 0] [4 0] 0 0
r 0.412863167 _1_ RTR  --- 7 tcp 1040 [0 0 0 0] ------- [1:0 11:0 32 0] [4 0] 0 0
s 0.412863167 _1_ RTR  --- 6 tcp 1040 [0 0 0 0] ------- [1:0 11:0 30 17] [3 0] 0 0
s 0.412863167 _1_ RTR  --- 7 tcp 1040 [0 0 0 0] ------- [1:0 11:0 30 17] [4 0] 0 0
s 0.414601776 _4_ RTR  --- 0 AODV 48 [0 ffffffff c 800] ------- [4:255 -1:255 26 0] [0x2 5 1 [11 0] [1 4]] (REQUEST)
r 0.414809930 _1_ AGT  --- 5 ack 40 [13a 1 11 800] ------- [11:0 1:0 28 1] [2 0] 3 0
s 0.414809930 _1_ AGT  --- 8 tcp 1040 [0 0 0 0] ------- [1:0 11:0 32 0] [5 0] 0 0
r 0.414809930 _1_ RTR  --- 8 tcp 1040 [0 0 0 0] ------- [1:0 11:0 32 0] [5 0] 0 0
s 0.414809930 _1_ AGT  --- 9 tcp 1040 [0 0 0 0] ------- [1:0 11:0 32 0] [6 0] 0 0
r 0.414809930 _1_ RTR  --- 9 tcp 1040 [0 0 0 0] ------- [1:0 11:0 32 0] [6 0] 0 0
s 0.414809930 _1_ RTR  --- 8 tcp 1040 [0 0 0 0] ------- [1:0 11:0 30 17] [5 0] 0 0
s 0.414809930 _1_ RTR  --- 9 tcp 1040 [0 0 0 0] ------- [1:0 11:0 30 17] [6 0] 0 0
r 0.416150438 _0_ RTR  --- 0 AODV 48 [0 ffffffff 4 800] ------- [4:255 -1:255 26 0] [0x2 5 1 [11 0] [1 4]] (REQUEST)
s 0.422785697 _0_ RTR  --- 0 AODV 48 [0 ffffffff 4 800] ------- [0:255 -1:255 25 0] [0x2 6 1 [11 0] [1 4]] (REQUEST)
r 0.424034343 _5_ RTR  --- 0 AODV 48 [0 ffffffff 0 800] ------- [0:255 -1:255 25 0] [0x2 6 1 [11 0] [1 4]] (REQUEST)
r 0.424034360 _4_ RTR  --- 0 AODV 48 [0 ffffffff 0 800] ------- [0:255 -1:255 25 0] [0x2 6 1 [11 0] [1 4]] (REQUEST)
r 0.424034371 _13_ RTR  --- 0 AODV 48 [0 ffffffff 0 800] ------- [0:255 -1:255 25 0] [0x2 6 1 [11 0] [1 4]] (REQUEST)
r 0.424034400 _14_ RTR  --- 0 AODV 48 [0 ffffffff 0 800] ------- [0:255 -1:255 25 0] [0x2 6 1 [11 0] [1 4]] (REQUEST)
s 0.424036145 _14_ RTR  --- 0 AODV 48 [0 ffffffff 0 800] ------- [14:255 -1:255 24 0] [0x2 7 1 [11 0] [1 4]] (REQUEST)
r 0.425096002 _17_ RTR  --- 6 tcp 1040 [13a 11 1 800] ------- [1:0 11:0 30 17] [3 0] 1 0
f 0.425096002 _17_ RTR  --- 6 tcp 1040 [13a 11 1 800] ------- [1:0 11:0 29 9] [3 0] 1 0
r 0.425204763 _13_ RTR  --- 0 AODV 48 [0 ffffffff e 800] ------- [14:255 -1:255 24 0] [0x2 7 1 [11 0] [1 4]] (REQUEST)
r 0.425204848 _0_ RTR  --- 0 AODV 48 [0 ffffffff e 800] ------- [14:255 -1:255 24 0] [0x2 7 1 [11 0] [1 4]] (REQUEST)
r 0.425204881 _5_ RTR  --- 0 AODV 48 [0 ffffffff e 800] ------- [14:255 -1:255 24 0] [0x2 7 1 [11 0] [1 4]] (REQUEST)
s 0.427770409 _13_ RTR  --- 0 AODV 48 [0 ffffffff 0 800] ------- [13:255 -1:255 24 0] [0x2 7 1 [11 0] [1 4]] (REQUEST)
r 0.429119027 _14_ RTR  --- 0 AODV 48 [0 ffffffff d 800] ------- [13:255 -1:255 24 0] [0x2 7 1 [11 0] [1 4]] (REQUEST)
r 0.429119083 _0_ RTR  --- 0 AODV 48 [0 ffffffff d 800] ------- [13:255 -1:255 24 0] [0x2 7 1 [11 0] [1 4]] (REQUEST)
s 0.429495573 _5_ RTR  --- 0 AODV 48 [0 ffffffff 0 800] ------- [5:255 -1:255 24 0] [0x2 7 1 [11 0] [1 4]] (REQUEST)
r 0.435101791 _9_ RTR  --- 6 tcp 1040 [13a 9 11 800] ------- [1:0 11:0 29 9] [3 0] 2 0
f 0.435101791 _9_ RTR  --- 6 tcp 1040 [13a 9 11 800] ------- [1:0 11:0 28 11] [3 0] 2 0
r 0.445147570 _11_ AGT  --- 6 tcp 1040 [13a b 9 800] ------- [1:0 11:0 28 11] [3 0] 3 0
s 0.445147570 _11_ AGT  --- 10 ack 40 [0 0 0 0] ------- [11:0 1:0 32 0] [3 0] 0 0
r 0.445147570 _11_ RTR  --- 10 ack 40 [0 0 0 0] ------- [11:0 1:0 32 0] [3 0] 0 0
s 0.445147570 _11_ RTR  --- 10 ack 40 [0 0 0 0] ------- [11:0 1:0 30 9] [3 0] 0 0
r 0.447113349 _9_ RTR  --- 10 ack 40 [13a 9 b 800] ------- [11:0 1:0 30 9] [3 0] 1 0
f 0.447113349 _9_ RTR  --- 10 ack 40 [13a 9 b 800] ------- [11:0 1:0 29 17] [3 0] 1 0
r 0.449159138 _17_ RTR  --- 10 ack 40 [13a 11 9 800] ------- [11:0 1:0 29 17] [3 0] 2 0
f 0.449159138 _17_ RTR  --- 10 ack 40 [13a 11 9 800] ------- [11:0 1:0 28 1] [3 0] 2 0
r 0.450897243 _6_ RTR  --- 0 AODV 48 [0 ffffffff 5 800] ------- [5:255 -1:255 24 0] [0x2 7 1 [11 0] [1 4]] (REQUEST)
r 0.450897528 _0_ RTR  --- 0 AODV 48 [0 ffffffff 5 800] ------- [5:255 -1:255 24 0] [0x2 7 1 [11 0] [1 4]] (REQUEST)
r 0.450897618 _14_ RTR  --- 0 AODV 48 [0 ffffffff 5 800] ------- [5:255 -1:255 24 0] [0x2 7 1 [11 0] [1 4]] (REQUEST)
r 0.452894699 _1_ AGT  --- 10 ack 40 [13a 1 11 800] ------- [11:0 1:0 28 1] [3 0] 3 0
s 0.452894699 _1_ AGT  --- 11 tcp 1040 [0 0 0 0] ------- [1:0 11:0 32 0] [7 0] 0 0
r 0.452894699 _1_ RTR  --- 11 tcp 1040 [0 0 0 0] ------- [1:0 11:0 32 0] [7 0] 0 0
s 0.452894699 _1_ AGT  --- 12 tcp 1040 [0 0 0 0] ------- [1:0 11:0 32 0] [8 0] 0 0
r 0.452894699 _1_ RTR  --- 12 tcp 1040 [0 0 0 0] ------- [1:0 11:0 32 0] [8 0] 0 0
s 0.452894699 _1_ RTR  --- 11 tcp 1040 [0 0 0 0] ------- [1:0 11:0 30 17] [7 0] 0 0
s 0.452894699 _1_ RTR  --- 12 tcp 1040 [0 0 0 0] ------- [1:0 11:0 30 17] [8 0] 0 0
s 0.458793527 _6_ RTR  --- 0 AODV 48 [0 ffffffff 5 800] ------- [6:255 -1:255 23 0] [0x2 8 1 [11 0] [1 4]] (REQUEST)
r 0.459741888 _5_ RTR  --- 0 AODV 48 [0 ffffffff 6 800] ------- [6:255 -1:255 23 0] [0x2 8 1 [11 0] [1 4]] (REQUEST)
r 0.464360771 _17_ RTR  --- 7 tcp 1040 [13a 11 1 800] ------- [1:0 11:0 30 17] [4 0] 1 0
f 0.464360771 _17_ RTR  --- 7 tcp 1040 [13a 11 1 800] ------- [1:0 11:0 29 9] [4 0] 1 0
r 0.474706560 _9_ RTR  --- 7 tcp 1040 [13a 9 11 800] ------- [1:0 11:0 29 9] [4 0] 2 0
f 0.474706560 _9_ RTR  --- 7 tcp 1040 [13a 9 11 800] ------- [1:0 11:0 28 11] [4 0] 2 0
r 0.484952339 _11_ AGT  --- 7 tcp 1040 [13a b 9 800] ------- [1:0 11:0 28 11] [4 0] 3 0
s 0.484952339 _11_ AGT  --- 13 ack 40 [0 0 0 0] ------- [11:0 1:0 32 0] [4 0] 0 0
r 0.484952339 _11_ RTR  --- 13 ack 40 [0 0 0 0] ------- [11:0 1:0 32 0] [4 0] 0 0
s 0.484952339 _11_ RTR  --- 13 ack 40 [0 0 0 0] ------- [11:0 1:0 30 9] [4 0] 0 0
r 0.486798118 _9_ RTR  --- 13 ack 40 [13a 9 b 800] ------- [11:0 1:0 30 9] [4 0] 1 0
f 0.486798118 _9_ RTR  --- 13 ack 40 [13a 9 b 800] ------- [11:0 1:0 29 17] [4 0] 1 0
r 0.488663907 _17_ RTR  --- 13 ack 40 [13a 11 9 800] ------- [11:0 1:0 29 17] [4 0] 2 0
f 0.488663907 _17_ RTR  --- 13 ack 40 [13a 11 9 800] ------- [11:0 1:0 28 1] [4 0] 2 0
r 0.490509980 _1_ AGT  --- 13 ack 40 [13a 1 11 800] ------- [11:0 1:0 28 1] [4 0] 3 0
s 0.490509980 _1_ AGT  --- 14 tcp 1040 [0 0 0 0] ------- [1:0 11:0 32 0] [9 0] 0 0
r 0.490509980 _1_ RTR  --- 14 tcp 1040 [0 0 0 0] ------- [1:0 11:0 32 0] [9 0] 0 0
s 0.490509980 _1_ AGT  --- 15 tcp 1040 [0 0 0 0] ------- [1:0 11:0 32 0] [10 0] 0 0
r 0.490509980 _1_ RTR  --- 15 tcp 1040 [0 0 0 0] ------- [1:0 11:0 32 0] [10 0] 0 0
s 0.490509980 _1_ RTR  --- 14 tcp 1040 [0 0 0 0] ------- [1:0 11:0 30 17] [9 0] 0 0
s 0.490509980 _1_ RTR  --- 15 tcp 1040 [0 0 0 0] ------- [1:0 11:0 30 17] [10 0] 0 0
r 0.500376052 _17_ RTR  --- 8 tcp 1040 [13a 11 1 800] ------- [1:0 11:0 30 17] [5 0] 1 0
f 0.500376052 _17_ RTR  --- 8 tcp 1040 [13a 11 1 800] ------- [1:0 11:0 29 9] [5 0] 1 0
r 0.510561841 _9_ RTR  --- 8 tcp 1040 [13a 9 11 800] ------- [1:0 11:0 29 9] [5 0] 2 0
f 0.510561841 _9_ RTR  --- 8 tcp 1040 [13a 9 11 800] ------- [1:0 11:0 28 11] [5 0] 2 0
r 0.520767620 _11_ AGT  --- 8 tcp 1040 [13a b 9 800] ------- [1:0 11:0 28 11] [5 0] 3 0
s 0.520767620 _11_ AGT  --- 16 ack 40 [0 0 0 0] ------- [11:0 1:0 32 0] [5 0] 0 0
r 0.520767620 _11_ RTR  --- 16 ack 40 [0 0 0 0] ------- [11:0 1:0 32 0] [5 0] 0 0
s 0.520767620 _11_ RTR  --- 16 ack 40 [0 0 0 0] ------- [11:0 1:0 30 9] [5 0] 0 0
r 0.522913399 _9_ RTR  --- 16 ack 40 [13a 9 b 800] ------- [11:0 1:0 30 9] [5 0] 1 0
f 0.522913399 _9_ RTR  --- 16 ack 40 [13a 9 b 800] ------- [11:0 1:0 29 17] [5 0] 1 0
r 0.533184757 _17_ RTR  --- 9 tcp 1040 [13a 11 1 800] ------- [1:0 11:0 30 17] [6 0] 1 0
f 0.533184757 _17_ RTR  --- 9 tcp 1040 [13a 11 1 800] ------- [1:0 11:0 29 9] [6 0] 1 0
r 0.543150545 _9_ RTR  --- 9 tcp 1040 [13a 9 11 800] ------- [1:0 11:0 29 9] [6 0] 2 0
f 0.543150545 _9_ RTR  --- 9 tcp 1040 [13a 9 11 800] ------- [1:0 11:0 28 11] [6 0] 2 0
r 0.544996334 _17_ RTR  --- 16 ack 40 [13a 11 9 800] ------- [11:0 1:0 29 17] [5 0] 2 0
f 0.544996334 _17_ RTR  --- 16 ack 40 [13a 11 9 800] ------- [11:0 1:0 28 1] [5 0] 2 0
r 0.554822710 _11_ AGT  --- 9 tcp 1040 [13a b 9 800] ------- [1:0 11:0 28 11] [6 0] 3 0
s 0.554822710 _11_ AGT  --- 17 ack 40 [0 0 0 0] ------- [11:0 1:0 32 0] [6 0] 0 0
r 0.554822710 _11_ RTR  --- 17 ack 40 [0 0 0 0] ------- [11:0 1:0 32 0] [6 0] 0 0
s 0.554822710 _11_ RTR  --- 17 ack 40 [0 0 0 0] ------- [11:0 1:0 30 9] [6 0] 0 0
r 0.559129301 _1_ AGT  --- 16 ack 40 [13a 1 11 800] ------- [11:0 1:0 28 1] [5 0] 3 0
s 0.559129301 _1_ AGT  --- 18 tcp 1040 [0 0 0 0] ------- [1:0 11:0 32 0] [11 0] 0 0
r 0.559129301 _1_ RTR  --- 18 tcp 1040 [0 0 0 0] ------- [1:0 11:0 32 0] [11 0] 0 0
s 0.559129301 _1_ AGT  --- 19 tcp 1040 [0 0 0 0] ------- [1:0 11:0 32 0] [12 0] 0 0
r 0.559129301 _1_ RTR  --- 19 tcp 1040 [0 0 0 0] ------- [1:0 11:0 32 0] [12 0] 0 0
s 0.559129301 _1_ RTR  --- 18 tcp 1040 [0 0 0 0] ------- [1:0 11:0 30 17] [11 0] 0 0
s 0.559129301 _1_ RTR  --- 19 tcp 1040 [0 0 0 0] ------- [1:0 11:0 30 17] [12 0] 0 0
r 0.569455374 _17_ RTR  --- 11 tcp 1040 [13a 11 1 800] ------- [1:0 11:0 30 17] [7 0] 1 0
f 0.569455374 _17_ RTR  --- 11 tcp 1040 [13a 11 1 800] ------- [1:0 11:0 29 9] [7 0] 1 0
r 0.579301162 _9_ RTR  --- 11 tcp 1040 [13a 9 11 800] ------- [1:0 11:0 29 9] [7 0] 2 0
f 0.579301162 _9_ RTR  --- 11 tcp 1040 [13a 9 11 800] ------- [1:0 11:0 28 11] [7 0] 2 0
r 0.589366942 _11_ AGT  --- 11 tcp 1040 [13a b 9 800] ------- [1:0 11:0 28 11] [7 0] 3 0
s 0.589366942 _11_ AGT  --- 20 ack 40 [0 0 0 0] ------- [11:0 1:0 32 0] [7 0] 0 0
r 0.589366942 _11_ RTR  --- 20 ack 40 [0 0 0 0] ------- [11:0 1:0 32 0] [7 0] 0 0
s 0.589366942 _11_ RTR  --- 20 ack 40 [0 0 0 0] ------- [11:0 1:0 30 9] [7 0] 0 0
r 0.591392721 _9_ RTR  --- 17 ack 40 [13a 9 b 800] ------- [11:0 1:0 30 9] [6 0] 1 0
f 0.591392721 _9_ RTR  --- 17 ack 40 [13a 9 b 800] ------- [11:0 1:0 29 17] [6 0] 1 0
r 0.593219093 _9_ RTR  --- 20 ack 40 [13a 9 b 800] ------- [11:0 1:0 30 9] [7 0] 1 0
f 0.593219093 _9_ RTR  --- 20 ack 40 [13a 9 b 800] ------- [11:0 1:0 29 17] [7 0] 1 0
r 0.595224881 _17_ RTR  --- 17 ack 40 [13a 11 9 800] ------- [11:0 1:0 29 17] [6 0] 2 0
f 0.595224881 _17_ RTR  --- 17 ack 40 [13a 11 9 800] ------- [11:0 1:0 28 1] [6 0] 2 0
r 0.597210954 _1_ AGT  --- 17 ack 40 [13a 1 11 800] ------- [11:0 1:0 28 1] [6 0] 3 0
s 0.597210954 _1_ AGT  --- 21 tcp 1040 [0 0 0 0] ------- [1:0 11:0 32 0] [13 0] 0 0
r 0.597210954 _1_ RTR  --- 21 tcp 1040 [0 0 0 0] ------- [1:0 11:0 32 0] [13 0] 0 0
s 0.597210954 _1_ AGT  --- 22 tcp 1040 [0 0 0 0] ------- [1:0 11:0 32 0] [14 0] 0 0
r 0.597210954 _1_ RTR  --- 22 tcp 1040 [0 0 0 0] ------- [1:0 11:0 32 0] [14 0] 0 0
s 0.597210954 _1_ RTR  --- 21 tcp 1040 [0 0 0 0] ------- [1:0 11:0 30 17] [13 0] 0 0
s 0.597210954 _1_ RTR  --- 22 tcp 1040 [0 0 0 0] ------- [1:0 11:0 30 17] [14 0] 0 0
r 0.607057026 _17_ RTR  --- 12 tcp 1040 [13a 11 1 800] ------- [1:0 11:0 30 17] [8 0] 1 0
f 0.607057026 _17_ RTR  --- 12 tcp 1040 [13a 11 1 800] ------- [1:0 11:0 29 9] [8 0] 1 0
r 0.616883789 _17_ RTR  --- 14 tcp 1040 [13a 11 1 800] ------- [1:0 11:0 30 17] [9 0] 1 0
f 0.616883789 _17_ RTR  --- 14 tcp 1040 [13a 11 1 800] ------- [1:0 11:0 29 9] [9 0] 1 0
r 0.626830552 _17_ RTR  --- 15 tcp 1040 [13a 11 1 800] ------- [1:0 11:0 30 17] [10 0] 1 0
f 0.626830552 _17_ RTR  --- 15 tcp 1040 [13a 11 1 800] ------- [1:0 11:0 29 9] [10 0] 1 0
r 0.636756341 _9_ RTR  --- 12 tcp 1040 [13a 9 11 800] ------- [1:0 11:0 29 9] [8 0] 2 0
f 0.636756341 _9_ RTR  --- 12 tcp 1040 [13a 9 11 800] ------- [1:0 11:0 28 11] [8 0] 2 0
r 0.646742726 _9_ RTR  --- 14 tcp 1040 [13a 9 11 800] ------- [1:0 11:0 29 9] [9 0] 2 0
f 0.646742726 _9_ RTR  --- 14 tcp 1040 [13a 9 11 800] ------- [1:0 11:0 28 11] [9 0] 2 0
r 0.648648515 _17_ RTR  --- 20 ack 40 [13a 11 9 800] ------- [11:0 1:0 29 17] [7 0] 2 0
f 0.648648515 _17_ RTR  --- 20 ack 40 [13a 11 9 800] ------- [11:0 1:0 28 1] [7 0] 2 0
r 0.658805277 _17_ RTR  --- 18 tcp 1040 [13a 11 1 800] ------- [1:0 11:0 30 17] [11 0] 1 0
f 0.658805277 _17_ RTR  --- 18 tcp 1040 [13a 11 1 800] ------- [1:0 11:0 29 9] [11 0] 1 0
r 0.668751066 _9_ RTR  --- 15 tcp 1040 [13a 9 11 800] ------- [1:0 11:0 29 9] [10 0] 2 0
f 0.668751066 _9_ RTR  --- 15 tcp 1040 [13a 9 11 800] ------- [1:0 11:0 28 11] [10 0] 2 0
r 0.678796845 _11_ AGT  --- 12 tcp 1040 [13a b 9 800] ------- [1:0 11:0 28 11] [8 0] 3 0
s 0.678796845 _11_ AGT  --- 23 ack 40 [0 0 0 0] ------- [11:0 1:0 32 0] [8 0] 0 0
r 0.678796845 _11_ RTR  --- 23 ack 40 [0 0 0 0] ------- [11:0 1:0 32 0] [8 0] 0 0
s 0.678796845 _11_ RTR  --- 23 ack 40 [0 0 0 0] ------- [11:0 1:0 30 9] [8 0] 0 0
r 0.688663217 _11_ AGT  --- 14 tcp 1040 [13a b 9 800] ------- [1:0 11:0 28 11] [9 0] 3 0
s 0.688663217 _11_ AGT  --- 24 ack 40 [0 0 0 0] ------- [11:0 1:0 32 0] [9 0] 0 0
r 0.688663217 _11_ RTR  --- 24 ack 40 [0 0 0 0] ------- [11:0 1:0 32 0] [9 0] 0 0
s 0.688663217 _11_ RTR  --- 24 ack 40 [0 0 0 0] ------- [11:0 1:0 30 9] [9 0] 0 0
r 0.698875017 _17_ RTR  --- 19 tcp 1040 [13a 11 1 800] ------- [1:0 11:0 30 17] [12 0] 1 0
f 0.698875017 _17_ RTR  --- 19 tcp 1040 [13a 11 1 800] ------- [1:0 11:0 29 9] [12 0] 1 0
r 0.708851390 _11_ AGT  --- 15 tcp 1040 [13a b 9 800] ------- [1:0 11:0 28 11] [10 0] 3 0
s 0.708851390 _11_ AGT  --- 25 ack 40 [0 0 0 0] ------- [11:0 1:0 32 0] [10 0] 0 0
r 0.708851390 _11_ RTR  --- 25 ack 40 [0 0 0 0] ------- [11:0 1:0 32 0] [10 0] 0 0
s 0.708851390 _11_ RTR  --- 25 ack 40 [0 0 0 0] ------- [11:0 1:0 30 9] [10 0] 0 0
r 0.710797169 _9_ RTR  --- 23 ack 40 [13a 9 b 800] ------- [11:0 1:0 30 9] [8 0] 1 0
f 0.710797169 _9_ RTR  --- 23 ack 40 [13a 9 b 800] ------- [11:0 1:0 29 17] [8 0] 1 0
r 0.712702958 _17_ RTR  --- 23 ack 40 [13a 11 9 800] ------- [11:0 1:0 29 17] [8 0] 2 0
f 0.712702958 _17_ RTR  --- 23 ack 40 [13a 11 9 800] ------- [11:0 1:0 28 1] [8 0] 2 0
r 0.714689030 _1_ AGT  --- 20 ack 40 [13a 1 11 800] ------- [11:0 1:0 28 1] [7 0] 3 0
s 0.714689030 _1_ AGT  --- 26 tcp 1040 [0 0 0 0] ------- [1:0 11:0 32 0] [15 0] 0 0
r 0.714689030 _1_ RTR  --- 26 tcp 1040 [0 0 0 0] ------- [1:0 11:0 32 0] [15 0] 0 0
s 0.714689030 _1_ AGT  --- 27 tcp 1040 [0 0 0 0] ------- [1:0 11:0 32 0] [16 0] 0 0
r 0.714689030 _1_ RTR  --- 27 tcp 1040 [0 0 0 0] ------- [1:0 11:0 32 0] [16 0] 0 0
s 0.714689030 _1_ RTR  --- 26 tcp 1040 [0 0 0 0] ------- [1:0 11:0 30 17] [15 0] 0 0
s 0.714689030 _1_ RTR  --- 27 tcp 1040 [0 0 0 0] ------- [1:0 11:0 30 17] [16 0] 0 0
r 0.724635103 _17_ RTR  --- 21 tcp 1040 [13a 11 1 800] ------- [1:0 11:0 30 17] [13 0] 1 0
f 0.724635103 _17_ RTR  --- 21 tcp 1040 [13a 11 1 800] ------- [1:0 11:0 29 9] [13 0] 1 0
r 0.734680892 _9_ RTR  --- 18 tcp 1040 [13a 9 11 800] ------- [1:0 11:0 29 9] [11 0] 2 0
f 0.734680892 _9_ RTR  --- 18 tcp 1040 [13a 9 11 800] ------- [1:0 11:0 28 11] [11 0] 2 0
r 0.744547277 _9_ RTR  --- 19 tcp 1040 [13a 9 11 800] ------- [1:0 11:0 29 9] [12 0] 2 0
f 0.744547277 _9_ RTR  --- 19 tcp 1040 [13a 9 11 800] ------- [1:0 11:0 28 11] [12 0] 2 0
r 0.754813056 _11_ AGT  --- 18 tcp 1040 [13a b 9 800] ------- [1:0 11:0 28 11] [11 0] 3 0
s 0.754813056 _11_ AGT  --- 28 ack 40 [0 0 0 0] ------- [11:0 1:0 32 0] [11 0] 0 0
r 0.754813056 _11_ RTR  --- 28 ack 40 [0 0 0 0] ------- [11:0 1:0 32 0] [11 0] 0 0
s 0.754813056 _11_ RTR  --- 28 ack 40 [0 0 0 0] ------- [11:0 1:0 30 9] [11 0] 0 0
r 0.756758835 _9_ RTR  --- 24 ack 40 [13a 9 b 800] ------- [11:0 1:0 30 9] [9 0] 1 0
f 0.756758835 _9_ RTR  --- 24 ack 40 [13a 9 b 800] ------- [11:0 1:0 29 17] [9 0] 1 0
r 0.758665207 _9_ RTR  --- 25 ack 40 [13a 9 b 800] ------- [11:0 1:0 30 9] [10 0] 1 0
f 0.758665207 _9_ RTR  --- 25 ack 40 [13a 9 b 800] ------- [11:0 1:0 29 17] [10 0] 1 0
r 0.760621750 _1_ AGT  --- 23 ack 40 [13a 1 11 800] ------- [11:0 1:0 28 1] [8 0] 3 0